# vtk DataFile Version 4.0
my data
ASCII
DATASET STRUCTURED_GRID
DIMENSIONS 201 1 1
POINTS 201 Float32
0.000000 0 0
0.005000 0 0
0.010000 0 0
0.015000 0 0
0.020000 0 0
0.025000 0 0
0.030000 0 0
0.035000 0 0
0.040000 0 0
0.045000 0 0
0.050000 0 0
0.055000 0 0
0.060000 0 0
0.065000 0 0
0.070000 0 0
0.075000 0 0
0.080000 0 0
0.085000 0 0
0.090000 0 0
0.095000 0 0
0.100000 0 0
0.105000 0 0
0.110000 0 0
0.115000 0 0
0.120000 0 0
0.125000 0 0
0.130000 0 0
0.135000 0 0
0.140000 0 0
0.145000 0 0
0.150000 0 0
0.155000 0 0
0.160000 0 0
0.165000 0 0
0.170000 0 0
0.175000 0 0
0.180000 0 0
0.185000 0 0
0.190000 0 0
0.195000 0 0
0.200000 0 0
0.205000 0 0
0.210000 0 0
0.215000 0 0
0.220000 0 0
0.225000 0 0
0.230000 0 0
0.235000 0 0
0.240000 0 0
0.245000 0 0
0.250000 0 0
0.255000 0 0
0.260000 0 0
0.265000 0 0
0.270000 0 0
0.275000 0 0
0.280000 0 0
0.285000 0 0
0.290000 0 0
0.295000 0 0
0.300000 0 0
0.305000 0 0
0.310000 0 0
0.315000 0 0
0.320000 0 0
0.325000 0 0
0.330000 0 0
0.335000 0 0
0.340000 0 0
0.345000 0 0
0.350000 0 0
0.355000 0 0
0.360000 0 0
0.365000 0 0
0.370000 0 0
0.375000 0 0
0.380000 0 0
0.385000 0 0
0.390000 0 0
0.395000 0 0
0.400000 0 0
0.405000 0 0
0.410000 0 0
0.415000 0 0
0.420000 0 0
0.425000 0 0
0.430000 0 0
0.435000 0 0
0.440000 0 0
0.445000 0 0
0.450000 0 0
0.455000 0 0
0.460000 0 0
0.465000 0 0
0.470000 0 0
0.475000 0 0
0.480000 0 0
0.485000 0 0
0.490000 0 0
0.495000 0 0
0.500000 0 0
0.505000 0 0
0.510000 0 0
0.515000 0 0
0.520000 0 0
0.525000 0 0
0.530000 0 0
0.535000 0 0
0.540000 0 0
0.545000 0 0
0.550000 0 0
0.555000 0 0
0.560000 0 0
0.565000 0 0
0.570000 0 0
0.575000 0 0
0.580000 0 0
0.585000 0 0
0.590000 0 0
0.595000 0 0
0.600000 0 0
0.605000 0 0
0.610000 0 0
0.615000 0 0
0.620000 0 0
0.625000 0 0
0.630000 0 0
0.635000 0 0
0.640000 0 0
0.645000 0 0
0.650000 0 0
0.655000 0 0
0.660000 0 0
0.665000 0 0
0.670000 0 0
0.675000 0 0
0.680000 0 0
0.685000 0 0
0.690000 0 0
0.695000 0 0
0.700000 0 0
0.705000 0 0
0.710000 0 0
0.715000 0 0
0.720000 0 0
0.725000 0 0
0.730000 0 0
0.735000 0 0
0.740000 0 0
0.745000 0 0
0.750000 0 0
0.755000 0 0
0.760000 0 0
0.765000 0 0
0.770000 0 0
0.775000 0 0
0.780000 0 0
0.785000 0 0
0.790000 0 0
0.795000 0 0
0.800000 0 0
0.805000 0 0
0.810000 0 0
0.815000 0 0
0.820000 0 0
0.825000 0 0
0.830000 0 0
0.835000 0 0
0.840000 0 0
0.845000 0 0
0.850000 0 0
0.855000 0 0
0.860000 0 0
0.865000 0 0
0.870000 0 0
0.875000 0 0
0.880000 0 0
0.885000 0 0
0.890000 0 0
0.895000 0 0
0.900000 0 0
0.905000 0 0
0.910000 0 0
0.915000 0 0
0.920000 0 0
0.925000 0 0
0.930000 0 0
0.935000 0 0
0.940000 0 0
0.945000 0 0
0.950000 0 0
0.955000 0 0
0.960000 0 0
0.965000 0 0
0.970000 0 0
0.975000 0 0
0.980000 0 0
0.985000 0 0
0.990000 0 0
0.995000 0 0
1.000000 0 0
POINT_DATA 201
SCALARS node_id Float32 1
LOOKUP_TABLE node_id
0
1
2
3
4
5
6
7
8
9
10
11
12
13
14
15
16
17
18
19
20
21
22
23
24
25
26
27
28
29
30
31
32
33
34
35
36
37
38
39
40
41
42
43
44
45
46
47
48
49
50
51
52
53
54
55
56
57
58
59
60
61
62
63
64
65
66
67
68
69
70
71
72
73
74
75
76
77
78
79
80
81
82
83
84
85
86
87
88
89
90
91
92
93
94
95
96
97
98
99
100
101
102
103
104
105
106
107
108
109
110
111
112
113
114
115
116
117
118
119
120
121
122
123
124
125
126
127
128
129
130
131
132
133
134
135
136
137
138
139
140
141
142
143
144
145
146
147
148
149
150
151
152
153
154
155
156
157
158
159
160
161
162
163
164
165
166
167
168
169
170
171
172
173
174
175
176
177
178
179
180
181
182
183
184
185
186
187
188
189
190
191
192
193
194
195
196
197
198
199
200
CELL_DATA 200
SCALARS rho Float32 1
LOOKUP_TABLE rho
0.444998
0.444996
0.444993
0.444986
0.444974
0.444952
0.444912
0.444843
0.444724
0.444526
0.444206
0.443709
0.442967
0.441918
0.440516
0.438754
0.436660
0.434291
0.431711
0.428979
0.426140
0.423229
0.420271
0.417283
0.414278
0.411265
0.408252
0.405243
0.402243
0.399254
0.396281
0.393324
0.390386
0.387468
0.384572
0.381698
0.378847
0.376021
0.373219
0.370444
0.367697
0.364984
0.362310
0.359691
0.357145
0.354703
0.352405
0.350301
0.348444
0.346877
0.345627
0.344695
0.344043
0.343643
0.343404
0.343281
0.343247
0.343233
0.343237
0.343278
0.343392
0.343576
0.343779
0.343953
0.344086
0.344190
0.344274
0.344343
0.344398
0.344440
0.344472
0.344497
0.344517
0.344532
0.344544
0.344556
0.344568
0.344581
0.344593
0.344604
0.344612
0.344619
0.344625
0.344629
0.344633
0.344636
0.344639
0.344642
0.344646
0.344649
0.344651
0.344652
0.344652
0.344652
0.344652
0.344652
0.344651
0.344650
0.344648
0.344647
0.344645
0.344643
0.344641
0.344639
0.344636
0.344634
0.344632
0.344630
0.344627
0.344623
0.344618
0.344613
0.344606
0.344599
0.344595
0.344593
0.344592
0.344593
0.344594
0.344598
0.344603
0.344605
0.344605
0.344603
0.344598
0.344593
0.344589
0.344588
0.344587
0.344589
0.344597
0.344615
0.344654
0.344729
0.344873
0.345142
0.345637
0.346528
0.348094
0.350784
0.355297
0.362691
0.374519
0.392981
0.421066
0.462611
0.522100
0.603831
0.709805
0.835909
0.968348
1.086832
1.176099
1.233646
1.267331
1.286705
1.297666
1.303112
1.305367
1.306139
1.306323
1.306323
1.306242
1.306070
1.305760
1.305260
1.304578
1.303941
1.303546
1.303327
1.303241
1.303287
1.303439
1.303579
1.303629
1.303238
1.300160
1.284938
1.218728
0.975907
0.633813
0.520307
0.502667
0.500326
0.500039
0.500005
0.500001
0.500000
0.500000
0.500000
0.500000
0.500000
0.500000
0.500000
0.500000
0.500000
0.500000
0.500000
0.500000
0.500000
SCALARS m Float32 1
LOOKUP_TABLE m
0.311005
0.311010
0.311019
0.311036
0.311068
0.311126
0.311230
0.311414
0.311727
0.312247
0.313087
0.314392
0.316331
0.319069
0.322710
0.327265
0.332638
0.338668
0.345177
0.352005
0.359027
0.366148
0.373304
0.380449
0.387549
0.394581
0.401528
0.408378
0.415121
0.421750
0.428259
0.434645
0.440904
0.447035
0.453037
0.458908
0.464649
0.470259
0.475739
0.481088
0.486302
0.491377
0.496299
0.501050
0.505598
0.509894
0.513878
0.517476
0.520613
0.523229
0.525294
0.526839
0.527867
0.528574
0.528933
0.529089
0.529221
0.529221
0.529200
0.529122
0.528939
0.528650
0.528331
0.528046
0.527815
0.527639
0.527509
0.527406
0.527317
0.527240
0.527182
0.527144
0.527117
0.527093
0.527068
0.527046
0.527027
0.527010
0.526991
0.526971
0.526953
0.526941
0.526933
0.526928
0.526922
0.526914
0.526908
0.526903
0.526898
0.526893
0.526888
0.526884
0.526882
0.526883
0.526883
0.526882
0.526883
0.526884
0.526887
0.526889
0.526890
0.526890
0.526891
0.526893
0.526895
0.526898
0.526902
0.526905
0.526910
0.526915
0.526920
0.526926
0.526931
0.526936
0.526938
0.526942
0.526942
0.526942
0.526941
0.526937
0.526929
0.526915
0.526903
0.526893
0.526882
0.526874
0.526872
0.526874
0.526880
0.526889
0.526907
0.526941
0.527006
0.527128
0.527355
0.527774
0.528537
0.529902
0.532297
0.536406
0.543300
0.554598
0.572674
0.600893
0.643828
0.707342
0.798293
0.923252
1.085283
1.278092
1.480476
1.661762
1.798873
1.886395
1.936920
1.966756
1.984632
1.993289
1.996347
1.997227
1.997206
1.996970
1.996769
1.996612
1.996360
1.995819
1.994911
1.994008
1.993377
1.992850
1.992490
1.992502
1.992675
1.992818
1.992679
1.990914
1.980689
1.932634
1.726940
1.047099
0.239223
0.029999
0.003574
0.000422
0.000050
0.000006
0.000001
0.000000
0.000000
0.000000
0.000000
0.000000
0.000000
0.000000
0.000000
0.000000
0.000000
0.000000
0.000000
0.000000
SCALARS E Float32 1
LOOKUP_TABLE E
8.927952
8.927906
8.927820
8.927652
8.927341
8.926772
8.925753
8.923968
8.920915
8.915835
8.907641
8.894899
8.875935
8.849130
8.813393
8.768570
8.715506
8.655705
8.590857
8.522481
8.451785
8.379657
8.306733
8.233461
8.160161
8.087063
8.014336
7.942107
7.870474
7.799512
7.729278
7.659819
7.591171
7.523360
7.456408
7.390327
7.325129
7.260821
7.197413
7.134926
7.073405
7.012933
6.953668
6.895878
6.839991
6.786635
6.736662
6.691098
6.651020
6.617337
6.590513
6.570602
6.556616
6.548150
6.543012
6.540322
6.539716
6.539381
6.539464
6.540329
6.542750
6.546702
6.551050
6.554747
6.557573
6.559788
6.561608
6.563097
6.564262
6.565143
6.565825
6.566380
6.566818
6.567141
6.567391
6.567631
6.567893
6.568173
6.568443
6.568672
6.568852
6.569002
6.569132
6.569235
6.569309
6.569371
6.569438
6.569518
6.569600
6.569667
6.569709
6.569729
6.569748
6.569763
6.569765
6.569757
6.569740
6.569715
6.569687
6.569659
6.569630
6.569599
6.569569
6.569537
6.569501
6.569459
6.569412
6.569357
6.569295
6.569225
6.569141
6.569043
6.568937
6.568840
6.568769
6.568739
6.568716
6.568718
6.568740
6.568807
6.568909
6.569013
6.569107
6.569152
6.569153
6.569142
6.569129
6.569104
6.569053
6.569001
6.568974
6.568965
6.568977
6.569028
6.569149
6.569414
6.569953
6.570975
6.572809
6.575979
6.581296
6.589991
6.603874
6.625510
6.658394
6.707008
6.776597
6.872182
6.996143
7.143616
7.297685
7.436854
7.544653
7.609028
7.642683
7.666580
7.686037
7.694705
7.695716
7.694974
7.692910
7.691468
7.691091
7.691263
7.691760
7.692349
7.692590
7.692566
7.692063
7.690567
7.688978
7.688667
7.688666
7.688325
7.686893
7.679961
7.645658
7.489042
6.823562
4.661200
2.162103
1.521347
1.438772
1.428833
1.427657
1.427519
1.427502
1.427500
1.427500
1.427500
1.427500
1.427500
1.427500
1.427500
1.427500
1.427500
1.427500
1.427500
1.427500
1.427500
SCALARS p Float32 1
LOOKUP_TABLE p
3.527709
3.527689
3.527652
3.527579
3.527445
3.527199
3.526758
3.525986
3.524666
3.522468
3.518922
3.513407
3.505195
3.493578
3.478075
3.458607
3.435523
3.409462
3.381145
3.351224
3.320217
3.288509
3.256376
3.224011
3.191556
3.159110
3.126751
3.094535
3.062507
3.030702
2.999148
2.967866
2.936876
2.906192
2.875825
2.845784
2.816075
2.786705
2.757681
2.729015
2.700729
2.672865
2.645499
2.618758
2.592845
2.568057
2.544797
2.523553
2.504838
2.489087
2.476534
2.467195
2.460664
2.456655
2.454266
2.453035
2.452695
2.452554
2.452603
2.453016
2.454151
2.455997
2.458029
2.459764
2.461100
2.462142
2.462990
2.463681
2.464227
2.464646
2.464970
2.465227
2.465428
2.465579
2.465700
2.465814
2.465936
2.466065
2.466190
2.466299
2.466386
2.466457
2.466516
2.466563
2.466598
2.466628
2.466660
2.466697
2.466735
2.466766
2.466787
2.466798
2.466806
2.466812
2.466813
2.466810
2.466803
2.466791
2.466777
2.466764
2.466751
2.466738
2.466724
2.466709
2.466692
2.466673
2.466651
2.466625
2.466597
2.466564
2.466525
2.466479
2.466430
2.466386
2.466354
2.466339
2.466329
2.466330
2.466340
2.466371
2.466420
2.466470
2.466515
2.466539
2.466543
2.466541
2.466536
2.466524
2.466499
2.466473
2.466456
2.466440
2.466423
2.466404
2.466381
2.466356
2.466336
2.466327
2.466329
2.466341
2.466362
2.466387
2.466415
2.466443
2.466470
2.466495
2.466520
2.466544
2.466581
2.466610
2.466384
2.466576
2.467577
2.466706
2.465016
2.465386
2.467361
2.468080
2.467669
2.467195
2.466468
2.466035
2.465970
2.466054
2.466262
2.466595
2.466927
2.467172
2.467173
2.466795
2.466338
2.466228
2.466193
2.466035
2.465570
2.463694
2.454780
2.414254
2.240009
1.639783
0.846783
0.608193
0.575504
0.571533
0.571063
0.571007
0.571001
0.571000
0.571000
0.571000
0.571000
0.571000
0.571000
0.571000
0.571000
0.571000
0.571000
0.571000
0.571000
0.571000
SCALARS u Float32 1
LOOKUP_TABLE u
0.698891
0.698904
0.698929
0.698978
0.699069
0.699235
0.699532
0.700053
0.700944
0.702428
0.704824
0.708554
0.714119
0.722008
0.732572
0.745896
0.761778
0.779819
0.799556
0.820566
0.842509
0.865130
0.888247
0.911729
0.935480
0.959432
0.983531
1.007737
1.032017
1.056344
1.080696
1.105056
1.129406
1.153735
1.178030
1.202281
1.226480
1.250620
1.274691
1.298679
1.322561
1.346298
1.369818
1.393003
1.415665
1.437526
1.458204
1.477232
1.494109
1.508400
1.519830
1.528420
1.534305
1.538149
1.540263
1.541270
1.541810
1.541872
1.541789
1.541379
1.540336
1.538668
1.536832
1.535230
1.533962
1.532989
1.532235
1.531628
1.531126
1.530718
1.530405
1.530182
1.530017
1.529879
1.529754
1.529640
1.529531
1.529424
1.529315
1.529210
1.529120
1.529052
1.529005
1.528970
1.528936
1.528903
1.528871
1.528839
1.528809
1.528781
1.528758
1.528742
1.528736
1.528736
1.528736
1.528737
1.528743
1.528753
1.528767
1.528780
1.528791
1.528802
1.528814
1.528828
1.528844
1.528862
1.528882
1.528904
1.528929
1.528959
1.528996
1.529038
1.529084
1.529125
1.529154
1.529172
1.529175
1.529175
1.529164
1.529135
1.529089
1.529040
1.529006
1.528986
1.528975
1.528976
1.528985
1.528999
1.529019
1.529038
1.529053
1.529070
1.529088
1.529106
1.529128
1.529151
1.529169
1.529178
1.529176
1.529164
1.529144
1.529118
1.529091
1.529065
1.529042
1.529022
1.529005
1.528991
1.528987
1.528985
1.528867
1.528996
1.529525
1.529122
1.528347
1.528522
1.529386
1.529637
1.529337
1.529108
1.528876
1.528696
1.528636
1.528717
1.528887
1.529059
1.529163
1.529216
1.529196
1.529048
1.528873
1.528828
1.528783
1.528728
1.528563
1.527667
1.523419
1.504068
1.417002
1.072950
0.377434
0.057655
0.007110
0.000843
0.000100
0.000012
0.000001
0.000000
0.000000
0.000000
0.000000
0.000000
0.000000
0.000000
0.000000
0.000000
0.000000
0.000000
0.000000
0.000000
