# vtk DataFile Version 4.0
my data
ASCII
DATASET STRUCTURED_GRID
DIMENSIONS 101 1 1
POINTS 101 Float32
0.000000 0 0
0.010000 0 0
0.020000 0 0
0.030000 0 0
0.040000 0 0
0.050000 0 0
0.060000 0 0
0.070000 0 0
0.080000 0 0
0.090000 0 0
0.100000 0 0
0.110000 0 0
0.120000 0 0
0.130000 0 0
0.140000 0 0
0.150000 0 0
0.160000 0 0
0.170000 0 0
0.180000 0 0
0.190000 0 0
0.200000 0 0
0.210000 0 0
0.220000 0 0
0.230000 0 0
0.240000 0 0
0.250000 0 0
0.260000 0 0
0.270000 0 0
0.280000 0 0
0.290000 0 0
0.300000 0 0
0.310000 0 0
0.320000 0 0
0.330000 0 0
0.340000 0 0
0.350000 0 0
0.360000 0 0
0.370000 0 0
0.380000 0 0
0.390000 0 0
0.400000 0 0
0.410000 0 0
0.420000 0 0
0.430000 0 0
0.440000 0 0
0.450000 0 0
0.460000 0 0
0.470000 0 0
0.480000 0 0
0.490000 0 0
0.500000 0 0
0.510000 0 0
0.520000 0 0
0.530000 0 0
0.540000 0 0
0.550000 0 0
0.560000 0 0
0.570000 0 0
0.580000 0 0
0.590000 0 0
0.600000 0 0
0.610000 0 0
0.620000 0 0
0.630000 0 0
0.640000 0 0
0.650000 0 0
0.660000 0 0
0.670000 0 0
0.680000 0 0
0.690000 0 0
0.700000 0 0
0.710000 0 0
0.720000 0 0
0.730000 0 0
0.740000 0 0
0.750000 0 0
0.760000 0 0
0.770000 0 0
0.780000 0 0
0.790000 0 0
0.800000 0 0
0.810000 0 0
0.820000 0 0
0.830000 0 0
0.840000 0 0
0.850000 0 0
0.860000 0 0
0.870000 0 0
0.880000 0 0
0.890000 0 0
0.900000 0 0
0.910000 0 0
0.920000 0 0
0.930000 0 0
0.940000 0 0
0.950000 0 0
0.960000 0 0
0.970000 0 0
0.980000 0 0
0.990000 0 0
1.000000 0 0
POINT_DATA 101
SCALARS node_id Float32 1
LOOKUP_TABLE node_id
0
1
2
3
4
5
6
7
8
9
10
11
12
13
14
15
16
17
18
19
20
21
22
23
24
25
26
27
28
29
30
31
32
33
34
35
36
37
38
39
40
41
42
43
44
45
46
47
48
49
50
51
52
53
54
55
56
57
58
59
60
61
62
63
64
65
66
67
68
69
70
71
72
73
74
75
76
77
78
79
80
81
82
83
84
85
86
87
88
89
90
91
92
93
94
95
96
97
98
99
100
CELL_DATA 100
SCALARS rho Float32 1
LOOKUP_TABLE rho
1.000000
1.000000
1.000000
1.000000
1.000000
1.000000
1.000000
1.000000
1.000000
1.000000
1.000000
1.000000
1.000000
1.000000
1.000000
1.000000
1.000000
1.000000
1.000000
1.000000
1.000000
1.000000
1.000000
1.000000
1.000000
1.000000
1.000000
1.000000
1.000000
1.000000
1.000000
1.000000
1.000000
1.000000
1.000000
1.000000
1.000000
0.999998
0.999990
0.999948
0.999751
0.998902
0.995628
0.984467
0.951876
0.883320
0.792801
0.705285
0.615838
0.535366
0.460370
0.401090
0.362576
0.335377
0.308342
0.272503
0.224610
0.163576
0.132127
0.126086
0.125151
0.125020
0.125003
0.125000
0.125000
0.125000
0.125000
0.125000
0.125000
0.125000
0.125000
0.125000
0.125000
0.125000
0.125000
0.125000
0.125000
0.125000
0.125000
0.125000
0.125000
0.125000
0.125000
0.125000
0.125000
0.125000
0.125000
0.125000
0.125000
0.125000
0.125000
0.125000
0.125000
0.125000
0.125000
0.125000
0.125000
0.125000
0.125000
0.125000
SCALARS m Float32 1
LOOKUP_TABLE m
0.000000
0.000000
0.000000
0.000000
0.000000
0.000000
0.000000
0.000000
0.000000
0.000000
0.000000
0.000000
0.000000
0.000000
0.000000
0.000000
0.000000
0.000000
0.000000
0.000000
0.000000
0.000000
0.000000
0.000000
0.000000
0.000000
0.000000
0.000000
0.000000
0.000000
0.000000
0.000000
0.000000
0.000000
0.000000
0.000000
0.000000
0.000002
0.000012
0.000061
0.000295
0.001296
0.005143
0.018100
0.054837
0.127097
0.211032
0.286004
0.333057
0.365326
0.377093
0.369320
0.351446
0.326587
0.291429
0.243497
0.169440
0.058712
0.008810
0.001216
0.000163
0.000022
0.000003
0.000000
0.000000
0.000000
0.000000
0.000000
0.000000
0.000000
0.000000
0.000000
0.000000
0.000000
0.000000
0.000000
0.000000
0.000000
0.000000
0.000000
0.000000
0.000000
0.000000
0.000000
0.000000
0.000000
0.000000
0.000000
0.000000
0.000000
0.000000
0.000000
0.000000
0.000000
0.000000
0.000000
0.000000
0.000000
0.000000
0.000000
SCALARS E Float32 1
LOOKUP_TABLE E
2.500000
2.500000
2.500000
2.500000
2.500000
2.500000
2.500000
2.500000
2.500000
2.500000
2.500000
2.500000
2.500000
2.500000
2.500000
2.500000
2.500000
2.500000
2.500000
2.500000
2.500000
2.500000
2.500000
2.500000
2.500000
2.500000
2.500000
2.500000
2.500000
2.500000
2.500000
2.500000
2.500000
2.500000
2.500000
2.500000
2.499999
2.499994
2.499965
2.499819
2.499128
2.496164
2.484768
2.446235
2.335724
2.112513
1.835698
1.588998
1.357434
1.183931
1.041004
0.937791
0.899627
0.899515
0.896649
0.855127
0.697950
0.405183
0.273081
0.253208
0.250431
0.250057
0.250007
0.250001
0.250000
0.250000
0.250000
0.250000
0.250000
0.250000
0.250000
0.250000
0.250000
0.250000
0.250000
0.250000
0.250000
0.250000
0.250000
0.250000
0.250000
0.250000
0.250000
0.250000
0.250000
0.250000
0.250000
0.250000
0.250000
0.250000
0.250000
0.250000
0.250000
0.250000
0.250000
0.250000
0.250000
0.250000
0.250000
0.250000
SCALARS p Float32 1
LOOKUP_TABLE p
1.000000
1.000000
1.000000
1.000000
1.000000
1.000000
1.000000
1.000000
1.000000
1.000000
1.000000
1.000000
1.000000
1.000000
1.000000
1.000000
1.000000
1.000000
1.000000
1.000000
1.000000
1.000000
1.000000
1.000000
1.000000
1.000000
1.000000
1.000000
1.000000
1.000000
1.000000
1.000000
1.000000
1.000000
1.000000
1.000000
1.000000
0.999998
0.999986
0.999928
0.999651
0.998465
0.993902
0.978427
0.933658
0.841348
0.723044
0.612404
0.506949
0.423714
0.354625
0.307103
0.291719
0.296200
0.303571
0.298535
0.253616
0.157858
0.109115
0.101281
0.100172
0.100023
0.100003
0.100000
0.100000
0.100000
0.100000
0.100000
0.100000
0.100000
0.100000
0.100000
0.100000
0.100000
0.100000
0.100000
0.100000
0.100000
0.100000
0.100000
0.100000
0.100000
0.100000
0.100000
0.100000
0.100000
0.100000
0.100000
0.100000
0.100000
0.100000
0.100000
0.100000
0.100000
0.100000
0.100000
0.100000
0.100000
0.100000
0.100000
SCALARS u Float32 1
LOOKUP_TABLE u
0.000000
0.000000
0.000000
0.000000
0.000000
0.000000
0.000000
0.000000
0.000000
0.000000
0.000000
0.000000
0.000000
0.000000
0.000000
0.000000
0.000000
0.000000
0.000000
0.000000
0.000000
0.000000
0.000000
0.000000
0.000000
0.000000
0.000000
0.000000
0.000000
0.000000
0.000000
0.000000
0.000000
0.000000
0.000000
0.000000
0.000000
0.000002
0.000012
0.000061
0.000295
0.001298
0.005166
0.018386
0.057610
0.143886
0.266185
0.405515
0.540820
0.682385
0.819109
0.920792
0.969302
0.973791
0.945147
0.893557
0.754372
0.358930
0.066676
0.009643
0.001303
0.000172
0.000022
0.000003
0.000000
0.000000
0.000000
0.000000
0.000000
0.000000
0.000000
0.000000
0.000000
0.000000
0.000000
0.000000
0.000000
0.000000
0.000000
0.000000
0.000000
0.000000
0.000000
0.000000
0.000000
0.000000
0.000000
0.000000
0.000000
0.000000
0.000000
0.000000
0.000000
0.000000
0.000000
0.000000
0.000000
0.000000
0.000000
0.000000
