# vtk DataFile Version 4.0
my data
ASCII
DATASET STRUCTURED_GRID
DIMENSIONS 101 1 1
POINTS 101 Float32
0.000000 0 0
0.010000 0 0
0.020000 0 0
0.030000 0 0
0.040000 0 0
0.050000 0 0
0.060000 0 0
0.070000 0 0
0.080000 0 0
0.090000 0 0
0.100000 0 0
0.110000 0 0
0.120000 0 0
0.130000 0 0
0.140000 0 0
0.150000 0 0
0.160000 0 0
0.170000 0 0
0.180000 0 0
0.190000 0 0
0.200000 0 0
0.210000 0 0
0.220000 0 0
0.230000 0 0
0.240000 0 0
0.250000 0 0
0.260000 0 0
0.270000 0 0
0.280000 0 0
0.290000 0 0
0.300000 0 0
0.310000 0 0
0.320000 0 0
0.330000 0 0
0.340000 0 0
0.350000 0 0
0.360000 0 0
0.370000 0 0
0.380000 0 0
0.390000 0 0
0.400000 0 0
0.410000 0 0
0.420000 0 0
0.430000 0 0
0.440000 0 0
0.450000 0 0
0.460000 0 0
0.470000 0 0
0.480000 0 0
0.490000 0 0
0.500000 0 0
0.510000 0 0
0.520000 0 0
0.530000 0 0
0.540000 0 0
0.550000 0 0
0.560000 0 0
0.570000 0 0
0.580000 0 0
0.590000 0 0
0.600000 0 0
0.610000 0 0
0.620000 0 0
0.630000 0 0
0.640000 0 0
0.650000 0 0
0.660000 0 0
0.670000 0 0
0.680000 0 0
0.690000 0 0
0.700000 0 0
0.710000 0 0
0.720000 0 0
0.730000 0 0
0.740000 0 0
0.750000 0 0
0.760000 0 0
0.770000 0 0
0.780000 0 0
0.790000 0 0
0.800000 0 0
0.810000 0 0
0.820000 0 0
0.830000 0 0
0.840000 0 0
0.850000 0 0
0.860000 0 0
0.870000 0 0
0.880000 0 0
0.890000 0 0
0.900000 0 0
0.910000 0 0
0.920000 0 0
0.930000 0 0
0.940000 0 0
0.950000 0 0
0.960000 0 0
0.970000 0 0
0.980000 0 0
0.990000 0 0
1.000000 0 0
POINT_DATA 101
SCALARS temperature Float32 1
LOOKUP_TABLE temperature
0.000000
0.030815
0.061599
0.092323
0.122955
0.153466
0.183826
0.214004
0.243971
0.273697
0.303154
0.332310
0.361140
0.389612
0.417700
0.445376
0.472613
0.499383
0.525660
0.551418
0.576632
0.601277
0.625329
0.648764
0.671558
0.693690
0.715137
0.735878
0.755893
0.775162
0.793666
0.811387
0.828307
0.844410
0.859679
0.874100
0.887658
0.900341
0.912134
0.923028
0.933011
0.942072
0.950205
0.957399
0.963649
0.968947
0.973290
0.976672
0.979090
0.980541
0.981025
0.980541
0.979090
0.976672
0.973290
0.968947
0.963649
0.957399
0.950205
0.942072
0.933011
0.923028
0.912134
0.900341
0.887658
0.874100
0.859679
0.844410
0.828307
0.811387
0.793666
0.775162
0.755893
0.735878
0.715137
0.693690
0.671558
0.648764
0.625329
0.601277
0.576632
0.551418
0.525660
0.499383
0.472613
0.445376
0.417700
0.389612
0.361140
0.332310
0.303154
0.273697
0.243971
0.214004
0.183826
0.153466
0.122955
0.092323
0.061599
0.030815
0.000000
SCALARS T_exact Float32 1
LOOKUP_TABLE T_exact
0.000000
0.030805
0.061579
0.092292
0.122915
0.153416
0.183766
0.213934
0.243891
0.273608
0.303054
0.332202
0.361021
0.389484
0.417563
0.445230
0.472458
0.499219
0.525487
0.551237
0.576443
0.601080
0.625124
0.648551
0.671338
0.693462
0.714902
0.735637
0.755645
0.774908
0.793406
0.811121
0.828036
0.844133
0.859397
0.873813
0.887367
0.900045
0.911835
0.922725
0.932705
0.941764
0.949893
0.957085
0.963333
0.968630
0.972971
0.976351
0.978769
0.980220
0.980704
0.980220
0.978769
0.976351
0.972971
0.968630
0.963333
0.957085
0.949893
0.941764
0.932705
0.922725
0.911835
0.900045
0.887367
0.873813
0.859397
0.844133
0.828036
0.811121
0.793406
0.774908
0.755645
0.735637
0.714902
0.693462
0.671338
0.648551
0.625124
0.601080
0.576443
0.551237
0.525487
0.499219
0.472458
0.445230
0.417563
0.389484
0.361021
0.332202
0.303054
0.273608
0.243891
0.213934
0.183766
0.153416
0.122915
0.092292
0.061579
0.030805
0.000000
CELL_DATA 100
SCALARS mu Float32 1
LOOKUP_TABLE mu
0.000000
0.031124
0.062843
0.095134
0.127973
0.161335
0.195193
0.229521
0.264291
0.299473
0.335036
0.370951
0.407184
0.443701
0.480470
0.517453
0.554616
0.591921
0.629329
0.666802
0.704300
0.741783
0.779208
0.816534
0.853718
0.890715
0.927482
0.963974
1.000145
1.035948
1.071337
1.106265
1.140685
1.174547
1.207804
1.240407
1.272307
1.303454
1.333800
1.363294
1.391888
1.419532
1.446175
1.471769
1.496264
1.519612
1.541763
1.562669
1.582281
1.600553
1.617437
1.632887
1.646856
1.659299
1.670172
1.679431
1.687033
1.692937
1.697102
1.699488
1.700056
1.698769
1.695592
1.690489
1.683427
1.674374
1.663300
1.650177
1.634977
1.617675
1.598247
1.576673
1.552932
1.527006
1.498880
1.468541
1.435977
1.401178
1.364138
1.324852
1.283319
1.239537
1.193510
1.145243
1.094744
1.042023
0.987093
0.929969
0.870671
0.809219
0.745637
0.679952
0.612194
0.542395
0.470591
0.396819
0.321121
0.243542
0.164128
0.082930
