# vtk DataFile Version 4.0
my data
ASCII
DATASET STRUCTURED_GRID
DIMENSIONS 97 1 1
POINTS 97 Float32
0.000000 0 0
0.125000 0 0
0.250000 0 0
0.375000 0 0
0.500000 0 0
0.625000 0 0
0.750000 0 0
0.875000 0 0
1.000000 0 0
1.125000 0 0
1.250000 0 0
1.375000 0 0
1.500000 0 0
1.625000 0 0
1.750000 0 0
1.875000 0 0
2.000000 0 0
2.125000 0 0
2.250000 0 0
2.375000 0 0
2.500000 0 0
2.625000 0 0
2.750000 0 0
2.875000 0 0
3.000000 0 0
3.125000 0 0
3.250000 0 0
3.375000 0 0
3.500000 0 0
3.625000 0 0
3.750000 0 0
3.875000 0 0
4.000000 0 0
4.125000 0 0
4.250000 0 0
4.375000 0 0
4.500000 0 0
4.625000 0 0
4.750000 0 0
4.875000 0 0
5.000000 0 0
5.125000 0 0
5.250000 0 0
5.375000 0 0
5.500000 0 0
5.625000 0 0
5.750000 0 0
5.875000 0 0
6.000000 0 0
6.125000 0 0
6.250000 0 0
6.375000 0 0
6.500000 0 0
6.625000 0 0
6.750000 0 0
6.875000 0 0
7.000000 0 0
7.125000 0 0
7.250000 0 0
7.375000 0 0
7.500000 0 0
7.625000 0 0
7.750000 0 0
7.875000 0 0
8.000000 0 0
8.125000 0 0
8.250000 0 0
8.375000 0 0
8.500000 0 0
8.625000 0 0
8.750000 0 0
8.875000 0 0
9.000000 0 0
9.125000 0 0
9.250000 0 0
9.375000 0 0
9.500000 0 0
9.625000 0 0
9.750000 0 0
9.875000 0 0
10.000000 0 0
10.125000 0 0
10.250000 0 0
10.375000 0 0
10.500000 0 0
10.625000 0 0
10.750000 0 0
10.875000 0 0
11.000000 0 0
11.125000 0 0
11.250000 0 0
11.375000 0 0
11.500000 0 0
11.625000 0 0
11.750000 0 0
11.875000 0 0
12.000000 0 0
POINT_DATA 97
SCALARS node_id Float32 1
LOOKUP_TABLE node_id
0
1
2
3
4
5
6
7
8
9
10
11
12
13
14
15
16
17
18
19
20
21
22
23
24
25
26
27
28
29
30
31
32
33
34
35
36
37
38
39
40
41
42
43
44
45
46
47
48
49
50
51
52
53
54
55
56
57
58
59
60
61
62
63
64
65
66
67
68
69
70
71
72
73
74
75
76
77
78
79
80
81
82
83
84
85
86
87
88
89
90
91
92
93
94
95
96
SCALARS v_l Float32 1
LOOKUP_TABLE v_l
10.000000
10.093798
10.171679
10.232639
10.278665
10.312751
10.337657
10.355557
10.368135
10.376726
10.382411
10.386051
10.388304
10.389655
10.390439
10.390880
10.391120
10.391247
10.391311
10.391343
10.391357
10.391363
10.391365
10.391364
10.391363
10.391361
10.391359
10.391357
10.391355
10.391352
10.391350
10.391348
10.391346
10.391344
10.391342
10.391340
10.391338
10.391336
10.391334
10.391332
10.391330
10.391328
10.391326
10.391324
10.391323
10.391321
10.391319
10.391317
10.391316
10.391314
10.391312
10.391310
10.391309
10.391307
10.391306
10.391304
10.391303
10.391301
10.391300
10.391298
10.391297
10.391295
10.391294
10.391293
10.391291
10.391290
10.391289
10.391288
10.391287
10.391286
10.391285
10.391284
10.391283
10.391282
10.391281
10.391280
10.391279
10.391278
10.391277
10.391277
10.391276
10.391275
10.391275
10.391274
10.391274
10.391273
10.391273
10.391272
10.391272
10.391272
10.391271
10.391271
10.391271
10.391271
10.391271
10.391271
10.391271
SCALARS v_g Float32 1
LOOKUP_TABLE v_g
0.000000
-0.066496
-0.218705
-0.440962
-0.692323
-0.931999
-1.134662
-1.291894
-1.406515
-1.486383
-1.540300
-1.576019
-1.599598
-1.615411
-1.626439
-1.634619
-1.641155
-1.646766
-1.651869
-1.656693
-1.661365
-1.665950
-1.670479
-1.674969
-1.679427
-1.683856
-1.688256
-1.692627
-1.696968
-1.701279
-1.705557
-1.709804
-1.714016
-1.718193
-1.722334
-1.726438
-1.730503
-1.734529
-1.738515
-1.742459
-1.746360
-1.750217
-1.754029
-1.757795
-1.761513
-1.765184
-1.768805
-1.772375
-1.775894
-1.779361
-1.782773
-1.786131
-1.789433
-1.792678
-1.795865
-1.798993
-1.802060
-1.805067
-1.808012
-1.810894
-1.813712
-1.816465
-1.819152
-1.821772
-1.824325
-1.826808
-1.829223
-1.831566
-1.833839
-1.836040
-1.838167
-1.840222
-1.842201
-1.844106
-1.845935
-1.847687
-1.849362
-1.850959
-1.852478
-1.853918
-1.855278
-1.856558
-1.857757
-1.858876
-1.859913
-1.860868
-1.861740
-1.862530
-1.863237
-1.863861
-1.864402
-1.864858
-1.865231
-1.865520
-1.865724
-1.865845
-1.865884
SCALARS v_hat Float32 1
LOOKUP_TABLE v_hat
8.000000
7.983744
7.996390
8.003429
8.005105
8.003550
8.000742
7.997826
7.995257
7.993126
7.991374
7.989909
7.988643
7.987511
7.986463
7.985469
7.984507
7.983565
7.982636
7.981716
7.980803
7.979895
7.978993
7.978095
7.977203
7.976316
7.975434
7.974559
7.973689
7.972825
7.971967
7.971117
7.970272
7.969435
7.968606
7.967783
7.966969
7.966162
7.965363
7.964573
7.963791
7.963018
7.962254
7.961500
7.960754
7.960019
7.959293
7.958578
7.957873
7.957178
7.956494
7.955821
7.955160
7.954509
7.953871
7.953244
7.952629
7.952027
7.951436
7.950859
7.950294
7.949743
7.949204
7.948679
7.948168
7.947670
7.947186
7.946716
7.946261
7.945820
7.945394
7.944982
7.944585
7.944204
7.943837
7.943486
7.943150
7.942830
7.942526
7.942237
7.941965
7.941708
7.941468
7.941244
7.941036
7.940845
7.940670
7.940511
7.940370
7.940245
7.940137
7.940045
7.939970
7.939912
7.939872
7.939847
7.939840
CELL_DATA 96
SCALARS alpha Float32 1
LOOKUP_TABLE alpha
0.206156
0.209197
0.209515
0.208191
0.206277
0.204439
0.202961
0.201888
0.201160
0.200690
0.200399
0.200224
0.200123
0.200066
0.200034
0.200017
0.200009
0.200004
0.200002
0.200001
0.200001
0.200000
0.200000
0.200000
0.200000
0.200000
0.200000
0.200000
0.200000
0.200000
0.200000
0.200000
0.200000
0.200000
0.200000
0.200000
0.200000
0.200000
0.200000
0.200000
0.200000
0.200000
0.200000
0.200000
0.200000
0.200000
0.200000
0.200000
0.200000
0.200000
0.200000
0.200000
0.200000
0.200000
0.200000
0.200000
0.200000
0.200000
0.200000
0.200000
0.200000
0.200000
0.200000
0.200000
0.200000
0.200000
0.200000
0.200000
0.200000
0.200000
0.200000
0.200000
0.200000
0.200000
0.200000
0.200000
0.200000
0.200000
0.200000
0.200000
0.200000
0.200000
0.200000
0.200000
0.200000
0.200000
0.200000
0.200000
0.200000
0.200000
0.200000
0.200000
0.200000
0.200000
0.200000
0.200000
SCALARS p_l Float32 1
LOOKUP_TABLE p_l
98235.071334
98412.100891
98606.479035
98811.573987
99013.937457
99200.364053
99361.591153
99493.376272
99595.814631
99671.949195
99726.342335
99763.929370
99789.258753
99806.099445
99817.330798
99825.010304
99830.526181
99834.768901
99838.284334
99841.393618
99844.278691
99847.039107
99849.727613
99852.371332
99854.983827
99857.571709
99860.138128
99862.684556
99865.211678
99867.719813
99870.209123
99872.679698
99875.131605
99877.564899
99879.979636
99882.375876
99884.753684
99887.113130
99889.454290
99891.777247
99894.082091
99896.368919
99898.637836
99900.888952
99903.122388
99905.338271
99907.536737
99909.717930
99911.882001
99914.029113
99916.159434
99918.273144
99920.370431
99922.451492
99924.516532
99926.565768
99928.599423
99930.617733
99932.620941
99934.609300
99936.583073
99938.542531
99940.487957
99942.419641
99944.337883
99946.242992
99948.135286
99950.015094
99951.882751
99953.738601
99955.583000
99957.416308
99959.238895
99961.051140
99962.853429
99964.646155
99966.429719
99968.204528
99969.970997
99971.729548
99973.480607
99975.224609
99976.961991
99978.693197
99980.418678
99982.138886
99983.854280
99985.565322
99987.272479
99988.976220
99990.677024
99992.375371
99994.071750
99995.766646
99997.460511
99999.153694
SCALARS p_g Float32 1
LOOKUP_TABLE p_g
99807.592397
99808.045625
99808.274808
99808.377612
99808.571901
99809.071045
99809.998651
99811.377293
99813.160066
99815.268139
99817.617629
99820.134075
99822.758017
99825.445386
99828.165408
99830.897649
99833.629141
99836.351980
99839.061532
99841.755171
99844.431459
99847.089637
99849.729314
99852.350301
99854.952512
99857.535916
99860.100507
99862.646297
99865.173306
99867.681561
99870.171094
99872.641941
99875.094145
99877.527753
99879.942817
99882.339395
99884.717551
99887.077356
99889.418884
99891.742220
99894.047454
99896.334681
99898.604007
99900.855542
99903.089408
99905.305730
99907.504645
99909.686297
99911.850838
99913.998428
99916.129238
99918.243447
99920.341242
99922.422821
99924.488388
99926.538160
99928.572362
99930.591227
99932.594999
99934.583931
99936.558286
99938.518336
99940.464361
99942.396653
99944.315511
99946.221244
99948.114171
99949.994619
99951.862924
99953.719430
99955.564491
99957.398469
99959.221734
99961.034662
99962.837641
99964.631063
99966.415329
99968.190847
99969.958030
99971.717300
99973.469083
99975.213813
99976.951929
99978.683873
99980.410096
99982.131050
99983.847192
99985.558985
99987.266893
99988.971385
99990.672931
99992.372005
99994.069083
99995.764640
99997.459156
99999.153107
SCALARS rho_l Float32 1
LOOKUP_TABLE rho_l
999.999824
999.999841
999.999861
999.999881
999.999901
999.999920
999.999936
999.999949
999.999960
999.999967
999.999973
999.999976
999.999979
999.999981
999.999982
999.999983
999.999983
999.999983
999.999984
999.999984
999.999984
999.999985
999.999985
999.999985
999.999985
999.999986
999.999986
999.999986
999.999987
999.999987
999.999987
999.999987
999.999988
999.999988
999.999988
999.999988
999.999988
999.999989
999.999989
999.999989
999.999989
999.999990
999.999990
999.999990
999.999990
999.999991
999.999991
999.999991
999.999991
999.999991
999.999992
999.999992
999.999992
999.999992
999.999992
999.999993
999.999993
999.999993
999.999993
999.999993
999.999994
999.999994
999.999994
999.999994
999.999994
999.999995
999.999995
999.999995
999.999995
999.999995
999.999996
999.999996
999.999996
999.999996
999.999996
999.999996
999.999997
999.999997
999.999997
999.999997
999.999997
999.999998
999.999998
999.999998
999.999998
999.999998
999.999998
999.999999
999.999999
999.999999
999.999999
999.999999
999.999999
1000.000000
1000.000000
1000.000000
SCALARS rho_g Float32 1
LOOKUP_TABLE rho_g
0.499808
0.499808
0.499808
0.499808
0.499809
0.499809
0.499810
0.499811
0.499813
0.499815
0.499818
0.499820
0.499823
0.499825
0.499828
0.499831
0.499834
0.499836
0.499839
0.499842
0.499844
0.499847
0.499850
0.499852
0.499855
0.499858
0.499860
0.499863
0.499865
0.499868
0.499870
0.499873
0.499875
0.499878
0.499880
0.499882
0.499885
0.499887
0.499889
0.499892
0.499894
0.499896
0.499899
0.499901
0.499903
0.499905
0.499908
0.499910
0.499912
0.499914
0.499916
0.499918
0.499920
0.499922
0.499924
0.499927
0.499929
0.499931
0.499933
0.499935
0.499937
0.499939
0.499940
0.499942
0.499944
0.499946
0.499948
0.499950
0.499952
0.499954
0.499956
0.499957
0.499959
0.499961
0.499963
0.499965
0.499966
0.499968
0.499970
0.499972
0.499973
0.499975
0.499977
0.499979
0.499980
0.499982
0.499984
0.499986
0.499987
0.499989
0.499991
0.499992
0.499994
0.499996
0.499997
0.499999
SCALARS mu Float32 1
LOOKUP_TABLE mu
0.000316
0.000316
0.000316
0.000316
0.000316
0.000316
0.000316
0.000316
0.000316
0.000316
0.000316
0.000316
0.000316
0.000316
0.000316
0.000316
0.000316
0.000316
0.000316
0.000316
0.000316
0.000316
0.000316
0.000316
0.000316
0.000316
0.000316
0.000316
0.000316
0.000316
0.000316
0.000316
0.000316
0.000316
0.000316
0.000316
0.000316
0.000316
0.000316
0.000316
0.000316
0.000316
0.000316
0.000316
0.000316
0.000316
0.000316
0.000316
0.000316
0.000316
0.000316
0.000316
0.000316
0.000316
0.000316
0.000316
0.000316
0.000316
0.000316
0.000316
0.000316
0.000316
0.000316
0.000316
0.000316
0.000316
0.000316
0.000316
0.000316
0.000316
0.000316
0.000316
0.000316
0.000316
0.000316
0.000316
0.000316
0.000316
0.000316
0.000316
0.000316
0.000316
0.000316
0.000316
0.000316
0.000316
0.000316
0.000316
0.000316
0.000316
0.000316
0.000316
0.000316
0.000316
0.000316
0.000316
SCALARS p_hat Float32 1
LOOKUP_TABLE p_hat
99807.343895
99807.825026
99808.084890
99808.220089
99808.446326
99808.974852
99809.927790
99811.327040
99813.125719
99815.245490
99817.603204
99820.125193
99822.752723
99825.442329
99828.163696
99830.896719
99833.628650
99836.351730
99839.061409
99841.755114
99844.431435
99847.089629
99849.729314
99852.350304
99854.952517
99857.535921
99860.100513
99862.646303
99865.173312
99867.681567
99870.171100
99872.641947
99875.094151
99877.527759
99879.942823
99882.339401
99884.717557
99887.077361
99889.418890
99891.742226
99894.047459
99896.334686
99898.604012
99900.855548
99903.089413
99905.305735
99907.504651
99909.686302
99911.850843
99913.998433
99916.129243
99918.243452
99920.341247
99922.422825
99924.488392
99926.538164
99928.572366
99930.591231
99932.595003
99934.583935
99936.558290
99938.518339
99940.464365
99942.396656
99944.315514
99946.221248
99948.114175
99949.994622
99951.862927
99953.719433
99955.564494
99957.398472
99959.221736
99961.034665
99962.837644
99964.631066
99966.415332
99968.190849
99969.958032
99971.717302
99973.469085
99975.213815
99976.951930
99978.683875
99980.410097
99982.131051
99983.847193
99985.558986
99987.266894
99988.971386
99990.672932
99992.372006
99994.069083
99995.764640
99997.459156
99999.153107
