# vtk DataFile Version 4.0
my data
ASCII
DATASET STRUCTURED_GRID
DIMENSIONS 101 1 1
POINTS 101 Float32
0.000000 0 0
0.010000 0 0
0.020000 0 0
0.030000 0 0
0.040000 0 0
0.050000 0 0
0.060000 0 0
0.070000 0 0
0.080000 0 0
0.090000 0 0
0.100000 0 0
0.110000 0 0
0.120000 0 0
0.130000 0 0
0.140000 0 0
0.150000 0 0
0.160000 0 0
0.170000 0 0
0.180000 0 0
0.190000 0 0
0.200000 0 0
0.210000 0 0
0.220000 0 0
0.230000 0 0
0.240000 0 0
0.250000 0 0
0.260000 0 0
0.270000 0 0
0.280000 0 0
0.290000 0 0
0.300000 0 0
0.310000 0 0
0.320000 0 0
0.330000 0 0
0.340000 0 0
0.350000 0 0
0.360000 0 0
0.370000 0 0
0.380000 0 0
0.390000 0 0
0.400000 0 0
0.410000 0 0
0.420000 0 0
0.430000 0 0
0.440000 0 0
0.450000 0 0
0.460000 0 0
0.470000 0 0
0.480000 0 0
0.490000 0 0
0.500000 0 0
0.510000 0 0
0.520000 0 0
0.530000 0 0
0.540000 0 0
0.550000 0 0
0.560000 0 0
0.570000 0 0
0.580000 0 0
0.590000 0 0
0.600000 0 0
0.610000 0 0
0.620000 0 0
0.630000 0 0
0.640000 0 0
0.650000 0 0
0.660000 0 0
0.670000 0 0
0.680000 0 0
0.690000 0 0
0.700000 0 0
0.710000 0 0
0.720000 0 0
0.730000 0 0
0.740000 0 0
0.750000 0 0
0.760000 0 0
0.770000 0 0
0.780000 0 0
0.790000 0 0
0.800000 0 0
0.810000 0 0
0.820000 0 0
0.830000 0 0
0.840000 0 0
0.850000 0 0
0.860000 0 0
0.870000 0 0
0.880000 0 0
0.890000 0 0
0.900000 0 0
0.910000 0 0
0.920000 0 0
0.930000 0 0
0.940000 0 0
0.950000 0 0
0.960000 0 0
0.970000 0 0
0.980000 0 0
0.990000 0 0
1.000000 0 0
POINT_DATA 101
SCALARS temperature Float32 1
LOOKUP_TABLE temperature
0.000000
0.031402
0.062773
0.094082
0.125298
0.156391
0.187329
0.218082
0.248620
0.278913
0.308930
0.338643
0.368021
0.397036
0.425660
0.453863
0.481618
0.508898
0.535676
0.561925
0.587620
0.612735
0.637245
0.661126
0.684355
0.706908
0.728764
0.749900
0.770297
0.789933
0.808790
0.826848
0.844091
0.860500
0.876061
0.890756
0.904573
0.917497
0.929515
0.940616
0.950789
0.960024
0.968311
0.975643
0.982011
0.987411
0.991836
0.995282
0.997746
0.999226
0.999719
0.999226
0.997746
0.995282
0.991836
0.987411
0.982011
0.975643
0.968311
0.960024
0.950789
0.940616
0.929515
0.917497
0.904573
0.890756
0.876061
0.860500
0.844091
0.826848
0.808790
0.789933
0.770297
0.749900
0.728764
0.706908
0.684355
0.661126
0.637245
0.612735
0.587620
0.561925
0.535676
0.508898
0.481618
0.453863
0.425660
0.397036
0.368021
0.338643
0.308930
0.278913
0.248620
0.218082
0.187329
0.156391
0.125298
0.094082
0.062773
0.031402
0.000000
SCALARS T_exact Float32 1
LOOKUP_TABLE T_exact
0.000000
0.031399
0.062767
0.094073
0.125287
0.156376
0.187312
0.218062
0.248597
0.278887
0.308902
0.338612
0.367987
0.397000
0.425621
0.453821
0.481574
0.508852
0.535627
0.561874
0.587566
0.612679
0.637187
0.661066
0.684292
0.706843
0.728697
0.749832
0.770226
0.789861
0.808716
0.826773
0.844014
0.860422
0.875980
0.890675
0.904490
0.917413
0.929430
0.940530
0.950702
0.959936
0.968223
0.975553
0.981921
0.987321
0.991745
0.995191
0.997655
0.999134
0.999628
0.999134
0.997655
0.995191
0.991745
0.987321
0.981921
0.975553
0.968223
0.959936
0.950702
0.940530
0.929430
0.917413
0.904490
0.890675
0.875980
0.860422
0.844014
0.826773
0.808716
0.789861
0.770226
0.749832
0.728697
0.706843
0.684292
0.661066
0.637187
0.612679
0.587566
0.561874
0.535627
0.508852
0.481574
0.453821
0.425621
0.397000
0.367987
0.338612
0.308902
0.278887
0.248597
0.218062
0.187312
0.156376
0.125287
0.094073
0.062767
0.031399
0.000000
CELL_DATA 100
SCALARS mu Float32 1
LOOKUP_TABLE mu
0.000000
0.031718
0.064041
0.096947
0.130412
0.164409
0.198912
0.233895
0.269327
0.305179
0.341421
0.378020
0.414943
0.452156
0.489625
0.527314
0.565184
0.603200
0.641321
0.679508
0.717721
0.755918
0.794056
0.832093
0.869985
0.907688
0.945156
0.982343
1.019203
1.055688
1.091752
1.127346
1.162421
1.196928
1.230819
1.264043
1.296551
1.328292
1.359216
1.389272
1.418411
1.446581
1.473732
1.499814
1.524776
1.548569
1.571142
1.592446
1.612432
1.631053
1.648258
1.664002
1.678237
1.690917
1.701997
1.711433
1.719180
1.725197
1.729441
1.731872
1.732451
1.731140
1.727902
1.722702
1.715505
1.706280
1.694995
1.681622
1.666132
1.648500
1.628703
1.606717
1.582523
1.556104
1.527442
1.496525
1.463340
1.427878
1.390132
1.350098
1.307773
1.263157
1.216253
1.167066
1.115605
1.061879
1.005902
0.947690
0.887262
0.824639
0.759846
0.692909
0.623860
0.552731
0.479558
0.404380
0.327240
0.248183
0.167256
0.084510
