# vtk DataFile Version 4.0
my data
ASCII
DATASET STRUCTURED_GRID
DIMENSIONS 201 1 1
POINTS 201 Float32
0.000000 0 0
0.005000 0 0
0.010000 0 0
0.015000 0 0
0.020000 0 0
0.025000 0 0
0.030000 0 0
0.035000 0 0
0.040000 0 0
0.045000 0 0
0.050000 0 0
0.055000 0 0
0.060000 0 0
0.065000 0 0
0.070000 0 0
0.075000 0 0
0.080000 0 0
0.085000 0 0
0.090000 0 0
0.095000 0 0
0.100000 0 0
0.105000 0 0
0.110000 0 0
0.115000 0 0
0.120000 0 0
0.125000 0 0
0.130000 0 0
0.135000 0 0
0.140000 0 0
0.145000 0 0
0.150000 0 0
0.155000 0 0
0.160000 0 0
0.165000 0 0
0.170000 0 0
0.175000 0 0
0.180000 0 0
0.185000 0 0
0.190000 0 0
0.195000 0 0
0.200000 0 0
0.205000 0 0
0.210000 0 0
0.215000 0 0
0.220000 0 0
0.225000 0 0
0.230000 0 0
0.235000 0 0
0.240000 0 0
0.245000 0 0
0.250000 0 0
0.255000 0 0
0.260000 0 0
0.265000 0 0
0.270000 0 0
0.275000 0 0
0.280000 0 0
0.285000 0 0
0.290000 0 0
0.295000 0 0
0.300000 0 0
0.305000 0 0
0.310000 0 0
0.315000 0 0
0.320000 0 0
0.325000 0 0
0.330000 0 0
0.335000 0 0
0.340000 0 0
0.345000 0 0
0.350000 0 0
0.355000 0 0
0.360000 0 0
0.365000 0 0
0.370000 0 0
0.375000 0 0
0.380000 0 0
0.385000 0 0
0.390000 0 0
0.395000 0 0
0.400000 0 0
0.405000 0 0
0.410000 0 0
0.415000 0 0
0.420000 0 0
0.425000 0 0
0.430000 0 0
0.435000 0 0
0.440000 0 0
0.445000 0 0
0.450000 0 0
0.455000 0 0
0.460000 0 0
0.465000 0 0
0.470000 0 0
0.475000 0 0
0.480000 0 0
0.485000 0 0
0.490000 0 0
0.495000 0 0
0.500000 0 0
0.505000 0 0
0.510000 0 0
0.515000 0 0
0.520000 0 0
0.525000 0 0
0.530000 0 0
0.535000 0 0
0.540000 0 0
0.545000 0 0
0.550000 0 0
0.555000 0 0
0.560000 0 0
0.565000 0 0
0.570000 0 0
0.575000 0 0
0.580000 0 0
0.585000 0 0
0.590000 0 0
0.595000 0 0
0.600000 0 0
0.605000 0 0
0.610000 0 0
0.615000 0 0
0.620000 0 0
0.625000 0 0
0.630000 0 0
0.635000 0 0
0.640000 0 0
0.645000 0 0
0.650000 0 0
0.655000 0 0
0.660000 0 0
0.665000 0 0
0.670000 0 0
0.675000 0 0
0.680000 0 0
0.685000 0 0
0.690000 0 0
0.695000 0 0
0.700000 0 0
0.705000 0 0
0.710000 0 0
0.715000 0 0
0.720000 0 0
0.725000 0 0
0.730000 0 0
0.735000 0 0
0.740000 0 0
0.745000 0 0
0.750000 0 0
0.755000 0 0
0.760000 0 0
0.765000 0 0
0.770000 0 0
0.775000 0 0
0.780000 0 0
0.785000 0 0
0.790000 0 0
0.795000 0 0
0.800000 0 0
0.805000 0 0
0.810000 0 0
0.815000 0 0
0.820000 0 0
0.825000 0 0
0.830000 0 0
0.835000 0 0
0.840000 0 0
0.845000 0 0
0.850000 0 0
0.855000 0 0
0.860000 0 0
0.865000 0 0
0.870000 0 0
0.875000 0 0
0.880000 0 0
0.885000 0 0
0.890000 0 0
0.895000 0 0
0.900000 0 0
0.905000 0 0
0.910000 0 0
0.915000 0 0
0.920000 0 0
0.925000 0 0
0.930000 0 0
0.935000 0 0
0.940000 0 0
0.945000 0 0
0.950000 0 0
0.955000 0 0
0.960000 0 0
0.965000 0 0
0.970000 0 0
0.975000 0 0
0.980000 0 0
0.985000 0 0
0.990000 0 0
0.995000 0 0
1.000000 0 0
POINT_DATA 201
SCALARS node_id Float32 1
LOOKUP_TABLE node_id
0
1
2
3
4
5
6
7
8
9
10
11
12
13
14
15
16
17
18
19
20
21
22
23
24
25
26
27
28
29
30
31
32
33
34
35
36
37
38
39
40
41
42
43
44
45
46
47
48
49
50
51
52
53
54
55
56
57
58
59
60
61
62
63
64
65
66
67
68
69
70
71
72
73
74
75
76
77
78
79
80
81
82
83
84
85
86
87
88
89
90
91
92
93
94
95
96
97
98
99
100
101
102
103
104
105
106
107
108
109
110
111
112
113
114
115
116
117
118
119
120
121
122
123
124
125
126
127
128
129
130
131
132
133
134
135
136
137
138
139
140
141
142
143
144
145
146
147
148
149
150
151
152
153
154
155
156
157
158
159
160
161
162
163
164
165
166
167
168
169
170
171
172
173
174
175
176
177
178
179
180
181
182
183
184
185
186
187
188
189
190
191
192
193
194
195
196
197
198
199
200
CELL_DATA 200
SCALARS rho Float32 1
LOOKUP_TABLE rho
0.445000
0.445000
0.445000
0.445000
0.445000
0.445000
0.445000
0.445000
0.445000
0.445000
0.445000
0.445000
0.445000
0.445000
0.445000
0.445000
0.445000
0.445000
0.445000
0.445000
0.445000
0.445000
0.445000
0.445000
0.445000
0.445000
0.445000
0.445000
0.445000
0.445000
0.445000
0.445000
0.445000
0.445000
0.445000
0.445000
0.445000
0.445000
0.445000
0.445000
0.445000
0.445000
0.445000
0.444999
0.444998
0.444996
0.444991
0.444981
0.444959
0.444916
0.444830
0.444664
0.444358
0.443814
0.442891
0.441413
0.439206
0.436167
0.432314
0.427784
0.422763
0.417426
0.411911
0.406315
0.400704
0.395122
0.389602
0.384171
0.378850
0.373665
0.368647
0.363842
0.359318
0.355172
0.351521
0.348490
0.346142
0.344528
0.343484
0.342926
0.342711
0.342606
0.342598
0.342688
0.342964
0.343354
0.343681
0.343874
0.343985
0.344058
0.344105
0.344141
0.344185
0.344251
0.344341
0.344438
0.344512
0.344542
0.344537
0.344522
0.344505
0.344489
0.344482
0.344488
0.344517
0.344571
0.344613
0.344628
0.344621
0.344586
0.344546
0.344542
0.344583
0.344764
0.345284
0.346501
0.349064
0.354115
0.363553
0.380362
0.408999
0.455666
0.527997
0.632886
0.770522
0.925503
1.066690
1.170185
1.235404
1.271698
1.289996
1.299218
1.304148
1.306851
1.307792
1.307809
1.306196
1.296372
1.253244
1.081313
0.723311
0.537548
0.505141
0.500638
0.500077
0.500009
0.500001
0.500000
0.500000
0.500000
0.500000
0.500000
0.500000
0.500000
0.500000
0.500000
0.500000
0.500000
0.500000
0.500000
0.500000
0.500000
0.500000
0.500000
0.500000
0.500000
0.500000
0.500000
0.500000
0.500000
0.500000
0.500000
0.500000
0.500000
0.500000
0.500000
0.500000
0.500000
0.500000
0.500000
0.500000
0.500000
0.500000
0.500000
0.500000
0.500000
0.500000
0.500000
0.500000
0.500000
0.500000
0.500000
0.500000
0.500000
0.500000
0.500000
0.500000
0.500000
0.500000
0.500000
SCALARS m Float32 1
LOOKUP_TABLE m
0.311000
0.311000
0.311000
0.311000
0.311000
0.311000
0.311000
0.311000
0.311000
0.311000
0.311000
0.311000
0.311000
0.311000
0.311000
0.311000
0.311000
0.311000
0.311000
0.311000
0.311000
0.311000
0.311000
0.311000
0.311000
0.311000
0.311000
0.311000
0.311000
0.311000
0.311000
0.311000
0.311000
0.311000
0.311000
0.311000
0.311000
0.311000
0.311000
0.311000
0.311000
0.311000
0.311001
0.311002
0.311005
0.311010
0.311023
0.311050
0.311107
0.311221
0.311449
0.311884
0.312688
0.314116
0.316531
0.320382
0.326094
0.333889
0.343649
0.354953
0.367263
0.380088
0.393059
0.405924
0.418522
0.430749
0.442536
0.453838
0.464620
0.474850
0.484485
0.493466
0.501699
0.509054
0.515370
0.520530
0.524378
0.527163
0.528724
0.529622
0.530192
0.530172
0.530154
0.530018
0.529607
0.529011
0.528492
0.528110
0.527906
0.527834
0.527770
0.527671
0.527548
0.527419
0.527308
0.527241
0.527190
0.527125
0.527044
0.526998
0.526978
0.526961
0.526941
0.526928
0.526924
0.526940
0.526940
0.526917
0.526886
0.526821
0.526764
0.526766
0.526838
0.527114
0.527878
0.529697
0.533601
0.541334
0.555777
0.581479
0.625258
0.696600
0.807172
0.967508
1.177983
1.415037
1.629954
1.788260
1.890754
1.946966
1.973019
1.985529
1.992576
1.997374
1.999298
1.999054
1.993800
1.963970
1.831321
1.332165
0.432106
0.058313
0.007043
0.000831
0.000098
0.000012
0.000001
0.000000
0.000000
0.000000
0.000000
0.000000
0.000000
0.000000
0.000000
0.000000
0.000000
0.000000
0.000000
0.000000
0.000000
0.000000
0.000000
0.000000
0.000000
0.000000
0.000000
0.000000
0.000000
0.000000
0.000000
0.000000
0.000000
0.000000
0.000000
0.000000
0.000000
0.000000
0.000000
0.000000
0.000000
0.000000
0.000000
0.000000
0.000000
0.000000
0.000000
0.000000
0.000000
0.000000
0.000000
0.000000
0.000000
0.000000
0.000000
0.000000
0.000000
0.000000
0.000000
0.000000
SCALARS E Float32 1
LOOKUP_TABLE E
8.928000
8.928000
8.928000
8.928000
8.928000
8.928000
8.928000
8.928000
8.928000
8.928000
8.928000
8.928000
8.928000
8.928000
8.928000
8.928000
8.928000
8.928000
8.928000
8.928000
8.928000
8.928000
8.928000
8.928000
8.928000
8.928000
8.928000
8.928000
8.928000
8.928000
8.928000
8.928000
8.928000
8.928000
8.928000
8.928000
8.928000
8.928000
8.928000
8.927999
8.927999
8.927997
8.927992
8.927981
8.927955
8.927899
8.927775
8.927511
8.926961
8.925841
8.923627
8.919384
8.911535
8.897591
8.873976
8.836244
8.780087
8.703079
8.606048
8.492760
8.368220
8.237056
8.102805
7.967908
7.833986
7.702112
7.573024
7.447266
7.325296
7.207586
7.094746
6.987683
6.887774
6.796967
6.717600
6.652149
6.601613
6.567246
6.544719
6.532789
6.528586
6.526125
6.525960
6.527913
6.533840
6.542229
6.549193
6.553132
6.555442
6.557181
6.558391
6.559283
6.560258
6.561670
6.563466
6.565231
6.566404
6.566999
6.567188
6.567330
6.567477
6.567582
6.567600
6.567659
6.567946
6.568435
6.568788
6.569183
6.569478
6.569418
6.569308
6.569208
6.569150
6.569354
6.570148
6.571827
6.574929
6.580806
6.591827
6.611533
6.645059
6.699588
6.784022
6.906381
7.067517
7.249183
7.408021
7.529152
7.621214
7.667362
7.677633
7.678816
7.681145
7.688634
7.693081
7.691425
7.673886
7.579455
7.156355
5.562923
2.753889
1.609091
1.449677
1.430126
1.427810
1.427537
1.427504
1.427501
1.427500
1.427500
1.427500
1.427500
1.427500
1.427500
1.427500
1.427500
1.427500
1.427500
1.427500
1.427500
1.427500
1.427500
1.427500
1.427500
1.427500
1.427500
1.427500
1.427500
1.427500
1.427500
1.427500
1.427500
1.427500
1.427500
1.427500
1.427500
1.427500
1.427500
1.427500
1.427500
1.427500
1.427500
1.427500
1.427500
1.427500
1.427500
1.427500
1.427500
1.427500
1.427500
1.427500
1.427500
1.427500
1.427500
1.427500
1.427500
1.427500
1.427500
1.427500
1.427500
SCALARS p Float32 1
LOOKUP_TABLE p
3.527730
3.527730
3.527730
3.527730
3.527730
3.527730
3.527730
3.527730
3.527730
3.527730
3.527730
3.527730
3.527730
3.527730
3.527730
3.527730
3.527730
3.527730
3.527730
3.527730
3.527730
3.527730
3.527730
3.527730
3.527730
3.527730
3.527730
3.527730
3.527730
3.527730
3.527730
3.527730
3.527730
3.527730
3.527730
3.527730
3.527730
3.527730
3.527730
3.527730
3.527729
3.527728
3.527726
3.527721
3.527710
3.527686
3.527633
3.527518
3.527280
3.526796
3.525839
3.524003
3.520607
3.514572
3.504346
3.487990
3.463612
3.430113
3.387785
3.338199
3.283478
3.225605
3.166108
3.106057
3.046168
2.986927
2.928677
2.871678
2.816157
2.762348
2.710554
2.661219
2.615010
2.572865
2.535922
2.505359
2.481767
2.465576
2.455115
2.449523
2.447387
2.446365
2.446306
2.447215
2.449972
2.453881
2.457140
2.459042
2.460144
2.460918
2.461463
2.461898
2.462384
2.463059
2.463887
2.464680
2.465215
2.465507
2.465629
2.465707
2.465770
2.465816
2.465832
2.465866
2.465997
2.466208
2.466369
2.466548
2.466681
2.466681
2.466653
2.466610
2.466562
2.466559
2.466653
2.466780
2.466833
2.466815
2.466804
2.466826
2.466851
2.466850
2.466817
2.466742
2.466824
2.466973
2.465079
2.465103
2.469736
2.470785
2.467516
2.464650
2.463576
2.464902
2.465944
2.465438
2.460880
2.436710
2.327333
1.896927
1.049928
0.642371
0.579851
0.572050
0.571124
0.571015
0.571002
0.571000
0.571000
0.571000
0.571000
0.571000
0.571000
0.571000
0.571000
0.571000
0.571000
0.571000
0.571000
0.571000
0.571000
0.571000
0.571000
0.571000
0.571000
0.571000
0.571000
0.571000
0.571000
0.571000
0.571000
0.571000
0.571000
0.571000
0.571000
0.571000
0.571000
0.571000
0.571000
0.571000
0.571000
0.571000
0.571000
0.571000
0.571000
0.571000
0.571000
0.571000
0.571000
0.571000
0.571000
0.571000
0.571000
0.571000
0.571000
0.571000
0.571000
0.571000
0.571000
0.571000
SCALARS u Float32 1
LOOKUP_TABLE u
0.698876
0.698876
0.698876
0.698876
0.698876
0.698876
0.698876
0.698876
0.698876
0.698876
0.698876
0.698876
0.698876
0.698876
0.698876
0.698876
0.698876
0.698876
0.698876
0.698876
0.698876
0.698876
0.698876
0.698876
0.698876
0.698876
0.698876
0.698876
0.698876
0.698876
0.698876
0.698876
0.698876
0.698876
0.698876
0.698876
0.698876
0.698876
0.698876
0.698877
0.698877
0.698877
0.698879
0.698882
0.698889
0.698906
0.698942
0.699019
0.699180
0.699506
0.700152
0.701391
0.703685
0.707766
0.714694
0.725810
0.742461
0.765508
0.794906
0.829749
0.868722
0.910551
0.954231
0.999037
1.044468
1.090168
1.135867
1.181345
1.226395
1.270788
1.314225
1.356266
1.396254
1.433260
1.466114
1.493673
1.514922
1.530104
1.539298
1.544422
1.547052
1.547470
1.547453
1.546646
1.544206
1.540715
1.537740
1.535763
1.534677
1.534142
1.533748
1.533300
1.532747
1.532076
1.531356
1.530730
1.530252
1.529929
1.529717
1.529651
1.529668
1.529686
1.529662
1.529599
1.529454
1.529262
1.529075
1.528943
1.528887
1.528851
1.528863
1.528887
1.528912
1.528913
1.528823
1.528705
1.528663
1.528696
1.528737
1.528751
1.528752
1.528751
1.528743
1.528724
1.528813
1.528938
1.528049
1.528185
1.530474
1.530997
1.529477
1.528249
1.527876
1.528387
1.528759
1.528552
1.526417
1.514973
1.461265
1.231988
0.597400
0.108480
0.013942
0.001661
0.000196
0.000023
0.000003
0.000000
0.000000
0.000000
0.000000
0.000000
0.000000
0.000000
0.000000
0.000000
0.000000
0.000000
0.000000
0.000000
0.000000
0.000000
0.000000
0.000000
0.000000
0.000000
0.000000
0.000000
0.000000
0.000000
0.000000
0.000000
0.000000
0.000000
0.000000
0.000000
0.000000
0.000000
0.000000
0.000000
0.000000
0.000000
0.000000
0.000000
0.000000
0.000000
0.000000
0.000000
0.000000
0.000000
0.000000
0.000000
0.000000
0.000000
0.000000
0.000000
0.000000
0.000000
0.000000
0.000000
