<VTKFile type="UnstructuredGrid" version="0.1" byte_order="LittleEndian">
  <UnstructuredGrid>
    <Piece NumberOfPoints="201" NumberOfCells="200">
      <Points>
        <DataArray type = "Float32" NumberOfComponents="3" format="ascii">
          0.000000 0 0
          0.100000 0 0
          0.200000 0 0
          0.300000 0 0
          0.400000 0 0
          0.500000 0 0
          0.600000 0 0
          0.700000 0 0
          0.800000 0 0
          0.900000 0 0
          1.000000 0 0
          1.100000 0 0
          1.200000 0 0
          1.300000 0 0
          1.400000 0 0
          1.500000 0 0
          1.600000 0 0
          1.700000 0 0
          1.800000 0 0
          1.900000 0 0
          2.000000 0 0
          2.100000 0 0
          2.200000 0 0
          2.300000 0 0
          2.400000 0 0
          2.500000 0 0
          2.600000 0 0
          2.700000 0 0
          2.800000 0 0
          2.900000 0 0
          3.000000 0 0
          3.100000 0 0
          3.200000 0 0
          3.300000 0 0
          3.400000 0 0
          3.500000 0 0
          3.600000 0 0
          3.700000 0 0
          3.800000 0 0
          3.900000 0 0
          4.000000 0 0
          4.100000 0 0
          4.200000 0 0
          4.300000 0 0
          4.400000 0 0
          4.500000 0 0
          4.600000 0 0
          4.700000 0 0
          4.800000 0 0
          4.900000 0 0
          5.000000 0 0
          5.100000 0 0
          5.200000 0 0
          5.300000 0 0
          5.400000 0 0
          5.500000 0 0
          5.600000 0 0
          5.700000 0 0
          5.800000 0 0
          5.900000 0 0
          6.000000 0 0
          6.100000 0 0
          6.200000 0 0
          6.300000 0 0
          6.400000 0 0
          6.500000 0 0
          6.600000 0 0
          6.700000 0 0
          6.800000 0 0
          6.900000 0 0
          7.000000 0 0
          7.100000 0 0
          7.200000 0 0
          7.300000 0 0
          7.400000 0 0
          7.500000 0 0
          7.600000 0 0
          7.700000 0 0
          7.800000 0 0
          7.900000 0 0
          8.000000 0 0
          8.100000 0 0
          8.200000 0 0
          8.300000 0 0
          8.400000 0 0
          8.500000 0 0
          8.600000 0 0
          8.700000 0 0
          8.800000 0 0
          8.900000 0 0
          9.000000 0 0
          9.100000 0 0
          9.200000 0 0
          9.300000 0 0
          9.400000 0 0
          9.500000 0 0
          9.600000 0 0
          9.700000 0 0
          9.800000 0 0
          9.900000 0 0
          10.000000 0 0
          10.100000 0 0
          10.200000 0 0
          10.300000 0 0
          10.400000 0 0
          10.500000 0 0
          10.600000 0 0
          10.700000 0 0
          10.800000 0 0
          10.900000 0 0
          11.000000 0 0
          11.100000 0 0
          11.200000 0 0
          11.300000 0 0
          11.400000 0 0
          11.500000 0 0
          11.600000 0 0
          11.700000 0 0
          11.800000 0 0
          11.900000 0 0
          12.000000 0 0
          12.100000 0 0
          12.200000 0 0
          12.300000 0 0
          12.400000 0 0
          12.500000 0 0
          12.600000 0 0
          12.700000 0 0
          12.800000 0 0
          12.900000 0 0
          13.000000 0 0
          13.100000 0 0
          13.200000 0 0
          13.300000 0 0
          13.400000 0 0
          13.500000 0 0
          13.600000 0 0
          13.700000 0 0
          13.800000 0 0
          13.900000 0 0
          14.000000 0 0
          14.100000 0 0
          14.200000 0 0
          14.300000 0 0
          14.400000 0 0
          14.500000 0 0
          14.600000 0 0
          14.700000 0 0
          14.800000 0 0
          14.900000 0 0
          15.000000 0 0
          15.100000 0 0
          15.200000 0 0
          15.300000 0 0
          15.400000 0 0
          15.500000 0 0
          15.600000 0 0
          15.700000 0 0
          15.800000 0 0
          15.900000 0 0
          16.000000 0 0
          16.100000 0 0
          16.200000 0 0
          16.300000 0 0
          16.400000 0 0
          16.500000 0 0
          16.600000 0 0
          16.700000 0 0
          16.800000 0 0
          16.900000 0 0
          17.000000 0 0
          17.100000 0 0
          17.200000 0 0
          17.300000 0 0
          17.400000 0 0
          17.500000 0 0
          17.600000 0 0
          17.700000 0 0
          17.800000 0 0
          17.900000 0 0
          18.000000 0 0
          18.100000 0 0
          18.200000 0 0
          18.300000 0 0
          18.400000 0 0
          18.500000 0 0
          18.600000 0 0
          18.700000 0 0
          18.800000 0 0
          18.900000 0 0
          19.000000 0 0
          19.100000 0 0
          19.200000 0 0
          19.300000 0 0
          19.400000 0 0
          19.500000 0 0
          19.600000 0 0
          19.700000 0 0
          19.800000 0 0
          19.900000 0 0
          20.000000 0 0
        </DataArray>
      </Points>
      <Cells>
        <DataArray type = "Int32" Name="connectivity" format="ascii">
          0 1
          1 2
          2 3
          3 4
          4 5
          5 6
          6 7
          7 8
          8 9
          9 10
          10 11
          11 12
          12 13
          13 14
          14 15
          15 16
          16 17
          17 18
          18 19
          19 20
          20 21
          21 22
          22 23
          23 24
          24 25
          25 26
          26 27
          27 28
          28 29
          29 30
          30 31
          31 32
          32 33
          33 34
          34 35
          35 36
          36 37
          37 38
          38 39
          39 40
          40 41
          41 42
          42 43
          43 44
          44 45
          45 46
          46 47
          47 48
          48 49
          49 50
          50 51
          51 52
          52 53
          53 54
          54 55
          55 56
          56 57
          57 58
          58 59
          59 60
          60 61
          61 62
          62 63
          63 64
          64 65
          65 66
          66 67
          67 68
          68 69
          69 70
          70 71
          71 72
          72 73
          73 74
          74 75
          75 76
          76 77
          77 78
          78 79
          79 80
          80 81
          81 82
          82 83
          83 84
          84 85
          85 86
          86 87
          87 88
          88 89
          89 90
          90 91
          91 92
          92 93
          93 94
          94 95
          95 96
          96 97
          97 98
          98 99
          99 100
          100 101
          101 102
          102 103
          103 104
          104 105
          105 106
          106 107
          107 108
          108 109
          109 110
          110 111
          111 112
          112 113
          113 114
          114 115
          115 116
          116 117
          117 118
          118 119
          119 120
          120 121
          121 122
          122 123
          123 124
          124 125
          125 126
          126 127
          127 128
          128 129
          129 130
          130 131
          131 132
          132 133
          133 134
          134 135
          135 136
          136 137
          137 138
          138 139
          139 140
          140 141
          141 142
          142 143
          143 144
          144 145
          145 146
          146 147
          147 148
          148 149
          149 150
          150 151
          151 152
          152 153
          153 154
          154 155
          155 156
          156 157
          157 158
          158 159
          159 160
          160 161
          161 162
          162 163
          163 164
          164 165
          165 166
          166 167
          167 168
          168 169
          169 170
          170 171
          171 172
          172 173
          173 174
          174 175
          175 176
          176 177
          177 178
          178 179
          179 180
          180 181
          181 182
          182 183
          183 184
          184 185
          185 186
          186 187
          187 188
          188 189
          189 190
          190 191
          191 192
          192 193
          193 194
          194 195
          195 196
          196 197
          197 198
          198 199
          199 200
        </DataArray>
        <DataArray type = "Int32" Name="offsets" format="ascii">
          2
          4
          6
          8
          10
          12
          14
          16
          18
          20
          22
          24
          26
          28
          30
          32
          34
          36
          38
          40
          42
          44
          46
          48
          50
          52
          54
          56
          58
          60
          62
          64
          66
          68
          70
          72
          74
          76
          78
          80
          82
          84
          86
          88
          90
          92
          94
          96
          98
          100
          102
          104
          106
          108
          110
          112
          114
          116
          118
          120
          122
          124
          126
          128
          130
          132
          134
          136
          138
          140
          142
          144
          146
          148
          150
          152
          154
          156
          158
          160
          162
          164
          166
          168
          170
          172
          174
          176
          178
          180
          182
          184
          186
          188
          190
          192
          194
          196
          198
          200
          202
          204
          206
          208
          210
          212
          214
          216
          218
          220
          222
          224
          226
          228
          230
          232
          234
          236
          238
          240
          242
          244
          246
          248
          250
          252
          254
          256
          258
          260
          262
          264
          266
          268
          270
          272
          274
          276
          278
          280
          282
          284
          286
          288
          290
          292
          294
          296
          298
          300
          302
          304
          306
          308
          310
          312
          314
          316
          318
          320
          322
          324
          326
          328
          330
          332
          334
          336
          338
          340
          342
          344
          346
          348
          350
          352
          354
          356
          358
          360
          362
          364
          366
          368
          370
          372
          374
          376
          378
          380
          382
          384
          386
          388
          390
          392
          394
          396
          398
          400
        </DataArray>
        <DataArray type = "UInt8" Name="types" format="ascii">
          3
          3
          3
          3
          3
          3
          3
          3
          3
          3
          3
          3
          3
          3
          3
          3
          3
          3
          3
          3
          3
          3
          3
          3
          3
          3
          3
          3
          3
          3
          3
          3
          3
          3
          3
          3
          3
          3
          3
          3
          3
          3
          3
          3
          3
          3
          3
          3
          3
          3
          3
          3
          3
          3
          3
          3
          3
          3
          3
          3
          3
          3
          3
          3
          3
          3
          3
          3
          3
          3
          3
          3
          3
          3
          3
          3
          3
          3
          3
          3
          3
          3
          3
          3
          3
          3
          3
          3
          3
          3
          3
          3
          3
          3
          3
          3
          3
          3
          3
          3
          3
          3
          3
          3
          3
          3
          3
          3
          3
          3
          3
          3
          3
          3
          3
          3
          3
          3
          3
          3
          3
          3
          3
          3
          3
          3
          3
          3
          3
          3
          3
          3
          3
          3
          3
          3
          3
          3
          3
          3
          3
          3
          3
          3
          3
          3
          3
          3
          3
          3
          3
          3
          3
          3
          3
          3
          3
          3
          3
          3
          3
          3
          3
          3
          3
          3
          3
          3
          3
          3
          3
          3
          3
          3
          3
          3
          3
          3
          3
          3
          3
          3
          3
          3
          3
          3
          3
          3
          3
          3
          3
          3
          3
          3
          3
          3
          3
          3
          3
          3
        </DataArray>
      </Cells>
      <CellData>
        <DataArray type="Float32" Name="alpha" format="ascii">
                      1.000000
                      1.000000
                      1.000000
                      1.000000
                      1.000000
                      1.000000
                      1.000000
                      1.000000
                      1.000000
                      1.000000
                      1.000000
                      1.000000
                      1.000000
                      1.000000
                      1.000000
                      1.000000
                      1.000000
                      1.000000
                      1.000000
                      1.000000
                      1.000000
                      1.000000
                      1.000000
                      1.000000
                      1.000000
                      1.000000
                      1.000000
                      1.000000
                      1.000000
                      1.000000
                      1.000000
                      1.000000
                      1.000000
                      1.000000
                      1.000000
                      1.000000
                      1.000000
                      1.000000
                      1.000000
                      1.000000
                      1.000000
                      1.000000
                      1.000000
                      0.963742
                      0.528133
                      0.157170
                      0.038856
                      0.007545
                      0.001009
                      0.000070
                     -0.000000
                      0.000000
                      0.000000
                      0.000000
                      0.000000
                      0.000000
                      0.000000
                      0.000000
                     -0.000000
                     -0.000000
                     -0.000000
                      0.000000
                      0.000000
                      0.000000
                      0.000000
                      0.000000
                      0.000000
                      0.000000
                      0.000000
                     -0.000000
                     -0.000000
                     -0.000000
                     -0.000000
                     -0.000000
                     -0.000000
                      0.000000
                      0.000000
                      0.000000
                      0.000000
                      0.000000
                      0.000000
                      0.000000
                      0.000000
                      0.000000
                     -0.000000
                     -0.000000
                     -0.000000
                     -0.000000
                     -0.000000
                     -0.000000
                      0.000000
                      0.000000
                      0.000000
                      0.000000
                      0.000000
                      0.000000
                      0.000000
                     -0.000000
                     -0.000000
                     -0.000000
                      0.000000
                      0.000000
                      0.000000
                      0.000000
                      0.000000
                      0.000000
                      0.000000
                      0.000000
                      0.000000
                      0.000000
                      0.000000
                      0.000000
                      0.000000
                      0.000000
                      0.000000
                      0.000000
                      0.000000
                      0.000000
                      0.000000
                      0.000000
                      0.000000
                      0.000000
                      0.000000
                      0.000000
                      0.000000
                      0.000000
                      0.000000
                      0.000000
                      0.000000
                      0.000000
                      0.000000
                      0.000000
                      0.000000
                      0.000000
                      0.000000
                      0.000000
                      0.000000
                      0.000002
                      0.000014
                      0.000090
                      0.000541
                      0.003064
                      0.016412
                      0.083557
                      0.394608
                      0.824380
                      0.981452
                      0.999602
                      0.999994
                      1.000000
                      1.000000
                      1.000000
                      1.000000
                      1.000000
                      1.000000
                      1.000000
                      1.000000
                      1.000000
                      1.000000
                      1.000000
                      1.000000
                      1.000000
                      1.000000
                      1.000000
                      1.000000
                      1.000000
                      1.000000
                      1.000000
                      1.000000
                      1.000000
                      1.000000
                      1.000000
                      1.000000
                      1.000000
                      1.000000
                      1.000000
                      1.000000
                      1.000000
                      1.000000
                      1.000000
                      1.000000
                      1.000000
                      1.000000
                      1.000000
                      1.000000
                      1.000000
                      1.000000
                      1.000000
                      1.000000
                      1.000000
                      1.000000
                      1.000000
                      1.000000
                      1.000000
                      1.000000
                      1.000000
                      1.000000
                      1.000000
                      1.000000
                      1.000000
        </DataArray>
        <DataArray type="Float32" Name="p" format="ascii">
                 100000.431122
                 100000.862247
                 100001.293378
                 100001.724517
                 100002.155664
                 100002.586821
                 100003.017990
                 100003.449171
                 100003.880366
                 100004.311577
                 100004.742804
                 100005.174050
                 100005.605315
                 100006.036601
                 100006.467910
                 100006.899242
                 100007.330600
                 100007.761985
                 100008.193399
                 100008.624842
                 100009.056317
                 100009.487825
                 100009.919368
                 100010.350946
                 100010.782562
                 100011.214218
                 100011.645914
                 100012.077652
                 100012.509433
                 100012.941259
                 100013.373131
                 100013.805051
                 100014.237019
                 100014.669037
                 100015.101106
                 100015.533226
                 100015.965399
                 100016.397626
                 100016.829908
                 100017.262245
                 100017.694637
                 100018.127087
                 100018.557938
                 100033.360183
                 100297.379544
                 100885.315142
                 101679.263427
                 102537.345707
                 103411.733380
                 104289.353703
                 105167.412782
                 106045.501636
                 106923.590610
                 107801.679704
                 108679.768918
                 109557.858251
                 110435.947703
                 111314.037273
                 112192.126961
                 113070.216766
                 113948.306689
                 114826.396728
                 115704.486884
                 116582.577155
                 117460.667542
                 118338.758044
                 119216.848661
                 120094.939391
                 120973.030236
                 121851.121194
                 122729.212264
                 123607.303448
                 124485.394743
                 125363.486150
                 126241.577668
                 127119.669298
                 127997.761037
                 128875.852887
                 129753.944846
                 130632.036915
                 131510.129092
                 132388.221378
                 133266.313772
                 134144.406273
                 135022.498881
                 135900.591596
                 136778.684418
                 137656.777345
                 138534.870378
                 139412.963516
                 140291.056758
                 141169.150105
                 142047.243556
                 142925.337110
                 143803.430767
                 144681.524527
                 145559.618389
                 146437.712349
                 147315.806457
                 148193.900591
                 148090.991019
                 147007.077748
                 145923.164588
                 144839.251548
                 143755.338627
                 142671.425825
                 141587.513141
                 140503.600575
                 139419.688126
                 138335.775795
                 137251.863580
                 136167.951481
                 135084.039499
                 134000.127631
                 132916.215879
                 131832.304241
                 130748.392718
                 129664.481308
                 128580.570012
                 127496.658828
                 126412.747757
                 125328.836799
                 124244.925952
                 123161.015216
                 122077.104592
                 120993.194077
                 119909.283674
                 118825.373379
                 117741.463194
                 116657.553118
                 115573.643151
                 114489.733291
                 113405.823540
                 112321.913896
                 111238.004358
                 110154.094925
                 109070.185583
                 107986.276482
                 106902.374450
                 105818.516822
                 104734.925229
                 103652.838730
                 102578.767731
                 101544.801538
                 100711.096459
                 100242.458202
                 100038.828682
                 100029.113449
                 100028.553253
                 100028.008658
                 100027.463891
                 100026.918898
                 100026.373675
                 100025.828225
                 100025.282549
                 100024.736649
                 100024.190526
                 100023.644183
                 100023.097623
                 100022.550847
                 100022.003859
                 100021.456661
                 100020.909256
                 100020.361648
                 100019.813840
                 100019.265835
                 100018.717638
                 100018.169251
                 100017.620679
                 100017.071927
                 100016.522997
                 100015.973895
                 100015.424626
                 100014.875193
                 100014.325603
                 100013.775859
                 100013.225967
                 100012.675932
                 100012.125759
                 100011.575454
                 100011.025022
                 100010.474470
                 100009.923802
                 100009.373025
                 100008.822144
                 100008.271166
                 100007.720096
                 100007.168941
                 100006.617707
                 100006.066400
                 100005.515027
                 100004.963595
                 100004.412109
                 100003.860576
                 100003.309002
                 100002.757395
                 100002.205761
                 100001.654107
                 100001.102439
                 100000.550764
        </DataArray>
        <DataArray type="Float32" Name="rho_l" format="ascii">
                   1000.000000
                   1000.000000
                   1000.000000
                   1000.000000
                   1000.000000
                   1000.000000
                   1000.000000
                   1000.000000
                   1000.000000
                   1000.000000
                   1000.000000
                   1000.000001
                   1000.000001
                   1000.000001
                   1000.000001
                   1000.000001
                   1000.000001
                   1000.000001
                   1000.000001
                   1000.000001
                   1000.000001
                   1000.000001
                   1000.000001
                   1000.000001
                   1000.000001
                   1000.000001
                   1000.000001
                   1000.000001
                   1000.000001
                   1000.000001
                   1000.000001
                   1000.000001
                   1000.000001
                   1000.000001
                   1000.000002
                   1000.000002
                   1000.000002
                   1000.000002
                   1000.000002
                   1000.000002
                   1000.000002
                   1000.000002
                   1000.000002
                   1000.000003
                   1000.000030
                   1000.000089
                   1000.000168
                   1000.000254
                   1000.000341
                   1000.000429
                   1000.000517
                   1000.000605
                   1000.000692
                   1000.000780
                   1000.000868
                   1000.000956
                   1000.001044
                   1000.001131
                   1000.001219
                   1000.001307
                   1000.001395
                   1000.001483
                   1000.001570
                   1000.001658
                   1000.001746
                   1000.001834
                   1000.001922
                   1000.002009
                   1000.002097
                   1000.002185
                   1000.002273
                   1000.002361
                   1000.002449
                   1000.002536
                   1000.002624
                   1000.002712
                   1000.002800
                   1000.002888
                   1000.002975
                   1000.003063
                   1000.003151
                   1000.003239
                   1000.003327
                   1000.003414
                   1000.003502
                   1000.003590
                   1000.003678
                   1000.003766
                   1000.003853
                   1000.003941
                   1000.004029
                   1000.004117
                   1000.004205
                   1000.004293
                   1000.004380
                   1000.004468
                   1000.004556
                   1000.004644
                   1000.004732
                   1000.004819
                   1000.004809
                   1000.004701
                   1000.004592
                   1000.004484
                   1000.004376
                   1000.004267
                   1000.004159
                   1000.004050
                   1000.003942
                   1000.003834
                   1000.003725
                   1000.003617
                   1000.003508
                   1000.003400