<VTKFile type="UnstructuredGrid" version="0.1" byte_order="LittleEndian">
  <UnstructuredGrid>
    <Piece NumberOfPoints="201" NumberOfCells="200">
      <Points>
        <DataArray type = "Float32" NumberOfComponents="3" format="ascii">
          0.000000 0 0
          0.100000 0 0
          0.200000 0 0
          0.300000 0 0
          0.400000 0 0
          0.500000 0 0
          0.600000 0 0
          0.700000 0 0
          0.800000 0 0
          0.900000 0 0
          1.000000 0 0
          1.100000 0 0
          1.200000 0 0
          1.300000 0 0
          1.400000 0 0
          1.500000 0 0
          1.600000 0 0
          1.700000 0 0
          1.800000 0 0
          1.900000 0 0
          2.000000 0 0
          2.100000 0 0
          2.200000 0 0
          2.300000 0 0
          2.400000 0 0
          2.500000 0 0
          2.600000 0 0
          2.700000 0 0
          2.800000 0 0
          2.900000 0 0
          3.000000 0 0
          3.100000 0 0
          3.200000 0 0
          3.300000 0 0
          3.400000 0 0
          3.500000 0 0
          3.600000 0 0
          3.700000 0 0
          3.800000 0 0
          3.900000 0 0
          4.000000 0 0
          4.100000 0 0
          4.200000 0 0
          4.300000 0 0
          4.400000 0 0
          4.500000 0 0
          4.600000 0 0
          4.700000 0 0
          4.800000 0 0
          4.900000 0 0
          5.000000 0 0
          5.100000 0 0
          5.200000 0 0
          5.300000 0 0
          5.400000 0 0
          5.500000 0 0
          5.600000 0 0
          5.700000 0 0
          5.800000 0 0
          5.900000 0 0
          6.000000 0 0
          6.100000 0 0
          6.200000 0 0
          6.300000 0 0
          6.400000 0 0
          6.500000 0 0
          6.600000 0 0
          6.700000 0 0
          6.800000 0 0
          6.900000 0 0
          7.000000 0 0
          7.100000 0 0
          7.200000 0 0
          7.300000 0 0
          7.400000 0 0
          7.500000 0 0
          7.600000 0 0
          7.700000 0 0
          7.800000 0 0
          7.900000 0 0
          8.000000 0 0
          8.100000 0 0
          8.200000 0 0
          8.300000 0 0
          8.400000 0 0
          8.500000 0 0
          8.600000 0 0
          8.700000 0 0
          8.800000 0 0
          8.900000 0 0
          9.000000 0 0
          9.100000 0 0
          9.200000 0 0
          9.300000 0 0
          9.400000 0 0
          9.500000 0 0
          9.600000 0 0
          9.700000 0 0
          9.800000 0 0
          9.900000 0 0
          10.000000 0 0
          10.100000 0 0
          10.200000 0 0
          10.300000 0 0
          10.400000 0 0
          10.500000 0 0
          10.600000 0 0
          10.700000 0 0
          10.800000 0 0
          10.900000 0 0
          11.000000 0 0
          11.100000 0 0
          11.200000 0 0
          11.300000 0 0
          11.400000 0 0
          11.500000 0 0
          11.600000 0 0
          11.700000 0 0
          11.800000 0 0
          11.900000 0 0
          12.000000 0 0
          12.100000 0 0
          12.200000 0 0
          12.300000 0 0
          12.400000 0 0
          12.500000 0 0
          12.600000 0 0
          12.700000 0 0
          12.800000 0 0
          12.900000 0 0
          13.000000 0 0
          13.100000 0 0
          13.200000 0 0
          13.300000 0 0
          13.400000 0 0
          13.500000 0 0
          13.600000 0 0
          13.700000 0 0
          13.800000 0 0
          13.900000 0 0
          14.000000 0 0
          14.100000 0 0
          14.200000 0 0
          14.300000 0 0
          14.400000 0 0
          14.500000 0 0
          14.600000 0 0
          14.700000 0 0
          14.800000 0 0
          14.900000 0 0
          15.000000 0 0
          15.100000 0 0
          15.200000 0 0
          15.300000 0 0
          15.400000 0 0
          15.500000 0 0
          15.600000 0 0
          15.700000 0 0
          15.800000 0 0
          15.900000 0 0
          16.000000 0 0
          16.100000 0 0
          16.200000 0 0
          16.300000 0 0
          16.400000 0 0
          16.500000 0 0
          16.600000 0 0
          16.700000 0 0
          16.800000 0 0
          16.900000 0 0
          17.000000 0 0
          17.100000 0 0
          17.200000 0 0
          17.300000 0 0
          17.400000 0 0
          17.500000 0 0
          17.600000 0 0
          17.700000 0 0
          17.800000 0 0
          17.900000 0 0
          18.000000 0 0
          18.100000 0 0
          18.200000 0 0
          18.300000 0 0
          18.400000 0 0
          18.500000 0 0
          18.600000 0 0
          18.700000 0 0
          18.800000 0 0
          18.900000 0 0
          19.000000 0 0
          19.100000 0 0
          19.200000 0 0
          19.300000 0 0
          19.400000 0 0
          19.500000 0 0
          19.600000 0 0
          19.700000 0 0
          19.800000 0 0
          19.900000 0 0
          20.000000 0 0
        </DataArray>
      </Points>
      <Cells>
        <DataArray type = "Int32" Name="connectivity" format="ascii">
          0 1
          1 2
          2 3
          3 4
          4 5
          5 6
          6 7
          7 8
          8 9
          9 10
          10 11
          11 12
          12 13
          13 14
          14 15
          15 16
          16 17
          17 18
          18 19
          19 20
          20 21
          21 22
          22 23
          23 24
          24 25
          25 26
          26 27
          27 28
          28 29
          29 30
          30 31
          31 32
          32 33
          33 34
          34 35
          35 36
          36 37
          37 38
          38 39
          39 40
          40 41
          41 42
          42 43
          43 44
          44 45
          45 46
          46 47
          47 48
          48 49
          49 50
          50 51
          51 52
          52 53
          53 54
          54 55
          55 56
          56 57
          57 58
          58 59
          59 60
          60 61
          61 62
          62 63
          63 64
          64 65
          65 66
          66 67
          67 68
          68 69
          69 70
          70 71
          71 72
          72 73
          73 74
          74 75
          75 76
          76 77
          77 78
          78 79
          79 80
          80 81
          81 82
          82 83
          83 84
          84 85
          85 86
          86 87
          87 88
          88 89
          89 90
          90 91
          91 92
          92 93
          93 94
          94 95
          95 96
          96 97
          97 98
          98 99
          99 100
          100 101
          101 102
          102 103
          103 104
          104 105
          105 106
          106 107
          107 108
          108 109
          109 110
          110 111
          111 112
          112 113
          113 114
          114 115
          115 116
          116 117
          117 118
          118 119
          119 120
          120 121
          121 122
          122 123
          123 124
          124 125
          125 126
          126 127
          127 128
          128 129
          129 130
          130 131
          131 132
          132 133
          133 134
          134 135
          135 136
          136 137
          137 138
          138 139
          139 140
          140 141
          141 142
          142 143
          143 144
          144 145
          145 146
          146 147
          147 148
          148 149
          149 150
          150 151
          151 152
          152 153
          153 154
          154 155
          155 156
          156 157
          157 158
          158 159
          159 160
          160 161
          161 162
          162 163
          163 164
          164 165
          165 166
          166 167
          167 168
          168 169
          169 170
          170 171
          171 172
          172 173
          173 174
          174 175
          175 176
          176 177
          177 178
          178 179
          179 180
          180 181
          181 182
          182 183
          183 184
          184 185
          185 186
          186 187
          187 188
          188 189
          189 190
          190 191
          191 192
          192 193
          193 194
          194 195
          195 196
          196 197
          197 198
          198 199
          199 200
        </DataArray>
        <DataArray type = "Int32" Name="offsets" format="ascii">
          2
          4
          6
          8
          10
          12
          14
          16
          18
          20
          22
          24
          26
          28
          30
          32
          34
          36
          38
          40
          42
          44
          46
          48
          50
          52
          54
          56
          58
          60
          62
          64
          66
          68
          70
          72
          74
          76
          78
          80
          82
          84
          86
          88
          90
          92
          94
          96
          98
          100
          102
          104
          106
          108
          110
          112
          114
          116
          118
          120
          122
          124
          126
          128
          130
          132
          134
          136
          138
          140
          142
          144
          146
          148
          150
          152
          154
          156
          158
          160
          162
          164
          166
          168
          170
          172
          174
          176
          178
          180
          182
          184
          186
          188
          190
          192
          194
          196
          198
          200
          202
          204
          206
          208
          210
          212
          214
          216
          218
          220
          222
          224
          226
          228
          230
          232
          234
          236
          238
          240
          242
          244
          246
          248
          250
          252
          254
          256
          258
          260
          262
          264
          266
          268
          270
          272
          274
          276
          278
          280
          282
          284
          286
          288
          290
          292
          294
          296
          298
          300
          302
          304
          306
          308
          310
          312
          314
          316
          318
          320
          322
          324
          326
          328
          330
          332
          334
          336
          338
          340
          342
          344
          346
          348
          350
          352
          354
          356
          358
          360
          362
          364
          366
          368
          370
          372
          374
          376
          378
          380
          382
          384
          386
          388
          390
          392
          394
          396
          398
          400
        </DataArray>
        <DataArray type = "UInt8" Name="types" format="ascii">
          3
          3
          3
          3
          3
          3
          3
          3
          3
          3
          3
          3
          3
          3
          3
          3
          3
          3
          3
          3
          3
          3
          3
          3
          3
          3
          3
          3
          3
          3
          3
          3
          3
          3
          3
          3
          3
          3
          3
          3
          3
          3
          3
          3
          3
          3
          3
          3
          3
          3
          3
          3
          3
          3
          3
          3
          3
          3
          3
          3
          3
          3
          3
          3
          3
          3
          3
          3
          3
          3
          3
          3
          3
          3
          3
          3
          3
          3
          3
          3
          3
          3
          3
          3
          3
          3
          3
          3
          3
          3
          3
          3
          3
          3
          3
          3
          3
          3
          3
          3
          3
          3
          3
          3
          3
          3
          3
          3
          3
          3
          3
          3
          3
          3
          3
          3
          3
          3
          3
          3
          3
          3
          3
          3
          3
          3
          3
          3
          3
          3
          3
          3
          3
          3
          3
          3
          3
          3
          3
          3
          3
          3
          3
          3
          3
          3
          3
          3
          3
          3
          3
          3
          3
          3
          3
          3
          3
          3
          3
          3
          3
          3
          3
          3
          3
          3
          3
          3
          3
          3
          3
          3
          3
          3
          3
          3
          3
          3
          3
          3
          3
          3
          3
          3
          3
          3
          3
          3
          3
          3
          3
          3
          3
          3
          3
          3
          3
          3
          3
          3
        </DataArray>
      </Cells>
      <CellData>
        <DataArray type="Float32" Name="alpha" format="ascii">
                      1.000000
                      1.000000
                      1.000000
                      1.000000
                      1.000000
                      1.000000
                      1.000000
                      1.000000
                      1.000000
                      1.000000
                      1.000000
                      1.000000
                      1.000000
                      1.000000
                      1.000000
                      1.000000
                      1.000000
                      1.000000
                      1.000000
                      1.000000
                      1.000000
                      1.000000
                      1.000000
                      1.000000
                      1.000000
                      1.000000
                      1.000000
                      1.000000
                      1.000000
                      1.000000
                      1.000000
                      1.000000
                      1.000000
                      1.000000
                      1.000000
                      1.000000
                      1.000000
                      1.000000
                      1.000000
                      1.000000
                      1.000000
                      1.000000
                      1.000000
                      1.000000
                      0.999999
                      0.999987
                      0.993345
                      0.747206
                      0.252077
                      0.036079
                      0.000000
                     -0.000000
                     -0.000000
                     -0.000000
                     -0.000000
                     -0.000000
                     -0.000000
                     -0.000000
                      0.000000
                      0.000000
                      0.000000
                     -0.000000
                      0.000000
                      0.000000
                     -0.000000
                     -0.000000
                     -0.000000
                     -0.000000
                     -0.000000
                     -0.000000
                      0.000000
                     -0.000000
                     -0.000000
                      0.000000
                     -0.000000
                      0.000000
                     -0.000000
                     -0.000000
                      0.000000
                      0.000000
                     -0.000000
                      0.000000
                     -0.000000
                     -0.000000
                     -0.000000
                     -0.000000
                      0.000000
                      0.000000
                     -0.000000
                     -0.000000
                     -0.000000
                     -0.000000
                     -0.000000
                     -0.000000
                     -0.000000
                      0.000000
                      0.000000
                      0.000000
                      0.000000
                      0.000000
                     -0.000000
                     -0.000000
                      0.000000
                      0.000000
                     -0.000000
                      0.000000
                      0.000000
                      0.000000
                      0.000000
                     -0.000000
                     -0.000000
                     -0.000000
                     -0.000000
                     -0.000000
                      0.000000
                      0.000000
                     -0.000000
                     -0.000000
                     -0.000000
                      0.000000
                      0.000000
                      0.000000
                      0.000000
                      0.000000
                      0.000000
                      0.000000
                      0.000000
                      0.000000
                      0.000000
                      0.000000
                      0.000000
                      0.000000
                      0.000000
                      0.000000
                      0.000000
                      0.000000
                      0.000000
                      0.000000
                      0.000000
                      0.000000
                      0.000000
                      0.000001
                      0.000007
                      0.000071
                      0.000635
                      0.005091
                      0.035969
                      0.233345
                      0.727670
                      0.968519
                      1.000000
                      1.000000
                      1.000000
                      1.000000
                      1.000000
                      1.000000
                      1.000000
                      1.000000
                      1.000000
                      1.000000
                      1.000000
                      1.000000
                      1.000000
                      1.000000
                      1.000000
                      1.000000
                      1.000000
                      1.000000
                      1.000000
                      1.000000
                      1.000000
                      1.000000
                      1.000000
                      1.000000
                      1.000000
                      1.000000
                      1.000000
                      1.000000
                      1.000000
                      1.000000
                      1.000000
                      1.000000
                      1.000000
                      1.000000
                      1.000000
                      1.000000
                      1.000000
                      1.000000
                      1.000000
                      1.000000
                      1.000000
                      1.000000
                      1.000000
                      1.000000
                      1.000000
                      1.000000
                      1.000000
                      1.000000
                      1.000000
                      1.000000
        </DataArray>
        <DataArray type="Float32" Name="p" format="ascii">
                 100000.251887
                 100000.755652
                 100001.259394
                 100001.763098
                 100002.266747
                 100002.770327
                 100003.273822
                 100003.777218
                 100004.280499
                 100004.783650
                 100005.286656
                 100005.789501
                 100006.292170
                 100006.794647
                 100007.296917
                 100007.798965
                 100008.300774
                 100008.802329
                 100009.303614
                 100009.804613
                 100010.305311
                 100010.805691
                 100011.305737
                 100011.805434
                 100012.304765
                 100012.803715
                 100013.302266
                 100013.800404
                 100014.298111
                 100014.795372
                 100015.292171
                 100015.788491
                 100016.284318
                 100016.779636
                 100017.274428
                 100017.768680
                 100018.262376
                 100018.755501
                 100019.248041
                 100019.739982
                 100020.231309
                 100020.722008
                 100021.212067
                 100021.701477
                 100022.190239
                 100022.677934
                 100024.542309
                 100253.374827
                 100766.967420
                 101577.694319
                 102501.732604
                 103442.736402
                 104383.740088
                 105324.743665
                 106265.747137
                 107206.750509
                 108147.753784
                 109088.756967
                 110029.760061
                 110970.763072
                 111911.766002
                 112852.768855
                 113793.771637
                 114734.774351
                 115675.777002
                 116616.779592
                 117557.782127
                 118498.784610
                 119439.787046
                 120380.789439
                 121321.791792
                 122262.794111
                 123203.796398
                 124144.798658
                 125085.800896
                 126026.803115
                 126967.805319
                 127908.807512
                 128849.809700
                 129790.811885
                 130731.814072
                 131672.816264
                 132613.818467
                 133554.820684
                 134495.822919
                 135436.825177
                 136377.827461
                 137318.829775
                 138259.832125
                 139200.834513
                 140141.836944
                 141082.839422
                 142023.841952
                 142964.844536
                 143905.847180
                 144846.849888
                 145787.852663
                 146728.855504
                 147669.858520
                 148610.861438
                 148570.860586
                 147549.855938
                 146528.851373
                 145507.846912
                 144486.842560
                 143465.838320
                 142444.834197
                 141423.830194
                 140402.826317
                 139381.822568
                 138360.818953
                 137339.815474
                 136318.812137
                 135297.808946
                 134276.805904
                 133255.803016
                 132234.800285
                 131213.797717
                 130192.795314
                 129171.793082
                 128150.791023
                 127129.789144
                 126108.787446
                 125087.785935
                 124066.784615
                 123045.783490
                 122024.782563
                 121003.781840
                 119982.781323
                 118961.781018
                 117940.780928
                 116919.781057
                 115898.781410
                 114877.781991
                 113856.782803
                 112835.783851
                 111814.785139
                 110793.786671
                 109772.788452
                 108751.790487
                 107730.792769
                 106709.795263
                 105688.800607
                 104667.838192
                 103647.164588
                 102628.820136
                 101626.644557
                 100728.564809
                 100155.994189
                 100013.283473
                 100010.612717
                 100010.143999
                 100009.688529
                 100009.246260
                 100008.817128
                 100008.401061
                 100007.997974
                 100007.607770
                 100007.230340
                 100006.865564
                 100006.513311
                 100006.173438
                 100005.845791
                 100005.530205
                 100005.226505
                 100004.934502
                 100004.654001
                 100004.384794
                 100004.126662
                 100003.879378
                 100003.642705
                 100003.416394
                 100003.200190
                 100002.993827
                 100002.797030
                 100002.609516
                 100002.430993
                 100002.261161
                 100002.099713
                 100001.946333
                 100001.800700
                 100001.662483
                 100001.531346
                 100001.406946
                 100001.288936
                 100001.176959
                 100001.070657
                 100000.969664
                 100000.873611
                 100000.782122
                 100000.694820
                 100000.611322
                 100000.531243
                 100000.454193
                 100000.379781
                 100000.307614
                 100000.237294
                 100000.168424
                 100000.100605
                 100000.033457
        </DataArray>
        <DataArray type="Float32" Name="rho_l" format="ascii">
                   1000.000000
                   1000.000000
                   1000.000000
                   1000.000000
                   1000.000000
                   1000.000000
                   1000.000000
                   1000.000000
                   1000.000000
                   1000.000000
                   1000.000001
                   1000.000001
                   1000.000001
                   1000.000001
                   1000.000001
                   1000.000001
                   1000.000001
                   1000.000001
                   1000.000001
                   1000.000001
                   1000.000001
                   1000.000001
                   1000.000001
                   1000.000001
                   1000.000001
                   1000.000001
                   1000.000001
                   1000.000001
                   1000.000001
                   1000.000001
                   1000.000002
                   1000.000002
                   1000.000002
                   1000.000002
                   1000.000002
                   1000.000002
                   1000.000002
                   1000.000002
                   1000.000002
                   1000.000002
                   1000.000002
                   1000.000002
                   1000.000002
                   1000.000002
                   1000.000002
                   1000.000002
                   1000.000002
                   1000.000025
                   1000.000077
                   1000.000158
                   1000.000250
                   1000.000344
                   1000.000438
                   1000.000532
                   1000.000627
                   1000.000721
                   1000.000815
                   1000.000909
                   1000.001003
                   1000.001097
                   1000.001191
                   1000.001285
                   1000.001379
                   1000.001473
                   1000.001568
                   1000.001662
                   1000.001756
                   1000.001850
                   1000.001944
                   1000.002038
                   1000.002132
                   1000.002226
                   1000.002320
                   1000.002414
                   1000.002509
                   1000.002603
                   1000.002697
                   1000.002791
                   1000.002885
                   1000.002979
                   1000.003073
                   1000.003167
                   1000.003261
                   1000.003355
                   1000.003450
                   1000.003544
                   1000.003638
                   1000.003732
                   1000.003826
                   1000.003920
                   1000.004014
                   1000.004108
                   1000.004202
                   1000.004296
                   1000.004391
                   1000.004485
                   1000.004579
                   1000.004673
                   1000.004767
                   1000.004861
                   1000.004857
                   1000.004755
                   1000.004653
                   1000.004551
                   1000.004449
                   1000.004347
                   1000.004244
                   1000.004142
                   1000.004040
                   1000.003938
                   1000.003836
                   1000.003734
                   1000.003632
                   1000.003530