<VTKFile type="UnstructuredGrid" version="0.1" byte_order="LittleEndian">
  <UnstructuredGrid>
    <Piece NumberOfPoints="41" NumberOfCells="40">
      <Points>
        <DataArray type = "Float32" NumberOfComponents="3" format="ascii">
          0.000000 0 0
          0.500000 0 0
          1.000000 0 0
          1.500000 0 0
          2.000000 0 0
          2.500000 0 0
          3.000000 0 0
          3.500000 0 0
          4.000000 0 0
          4.500000 0 0
          5.000000 0 0
          5.500000 0 0
          6.000000 0 0
          6.500000 0 0
          7.000000 0 0
          7.500000 0 0
          8.000000 0 0
          8.500000 0 0
          9.000000 0 0
          9.500000 0 0
          10.000000 0 0
          10.500000 0 0
          11.000000 0 0
          11.500000 0 0
          12.000000 0 0
          12.500000 0 0
          13.000000 0 0
          13.500000 0 0
          14.000000 0 0
          14.500000 0 0
          15.000000 0 0
          15.500000 0 0
          16.000000 0 0
          16.500000 0 0
          17.000000 0 0
          17.500000 0 0
          18.000000 0 0
          18.500000 0 0
          19.000000 0 0
          19.500000 0 0
          20.000000 0 0
        </DataArray>
      </Points>
      <Cells>
        <DataArray type = "Int32" Name="connectivity" format="ascii">
          0 1
          1 2
          2 3
          3 4
          4 5
          5 6
          6 7
          7 8
          8 9
          9 10
          10 11
          11 12
          12 13
          13 14
          14 15
          15 16
          16 17
          17 18
          18 19
          19 20
          20 21
          21 22
          22 23
          23 24
          24 25
          25 26
          26 27
          27 28
          28 29
          29 30
          30 31
          31 32
          32 33
          33 34
          34 35
          35 36
          36 37
          37 38
          38 39
          39 40
        </DataArray>
        <DataArray type = "Int32" Name="offsets" format="ascii">
          2
          4
          6
          8
          10
          12
          14
          16
          18
          20
          22
          24
          26
          28
          30
          32
          34
          36
          38
          40
          42
          44
          46
          48
          50
          52
          54
          56
          58
          60
          62
          64
          66
          68
          70
          72
          74
          76
          78
          80
        </DataArray>
        <DataArray type = "UInt8" Name="types" format="ascii">
          3
          3
          3
          3
          3
          3
          3
          3
          3
          3
          3
          3
          3
          3
          3
          3
          3
          3
          3
          3
          3
          3
          3
          3
          3
          3
          3
          3
          3
          3
          3
          3
          3
          3
          3
          3
          3
          3
          3
          3
        </DataArray>
      </Cells>
      <CellData>
        <DataArray type="Float32" Name="alpha" format="ascii">
                      1.000000
                      1.000000
                      1.000000
                      1.000000
                      1.000000
                      1.000000
                      1.000000
                      0.989880
                      0.748153
                      0.276493
                      0.067692
                      0.013099
                      0.002101
                      0.000316
                      0.000044
                      0.000006
                      0.000001
                      0.000000
                      0.000000
                      0.000000
                      0.000000
                      0.000001
                      0.000005
                      0.000034
                      0.000225
                      0.001398
                      0.008080
                      0.043280
                      0.226818
                      0.681939
                      0.943247
                      0.997199
                      0.999991
                      1.000000
                      1.000000
                      1.000000
                      1.000000
                      1.000000
                      1.000000
                      1.000000
        </DataArray>
        <DataArray type="Float32" Name="p" format="ascii">
                 100001.113101
                 100003.339364
                 100005.565741
                 100007.792229
                 100010.018830
                 100012.245550
                 100014.471729
                 100037.096439
                 100656.838482
                 102858.797815
                 106561.261996
                 110848.542488
                 115281.845940
                 119743.635486
                 124210.012642
                 128677.084671
                 133144.254884
                 137611.436616
                 142078.620908
                 146545.807051
                 146107.976480
                 140765.129182
                 135422.292930
                 130079.545492
                 124737.377239
                 119398.790850
                 114080.819368
                 108872.588940
                 104239.054103
                 101316.819710
                 100258.486470
                 100025.652251
                 100020.082994
                 100017.404218
                 100014.726293
                 100012.048496
                 100009.370827
                 100006.693288
                 100004.015875
                 100001.338599
        </DataArray>
        <DataArray type="Float32" Name="rho_l" format="ascii">
                   1000.000000
                   1000.000000
                   1000.000001
                   1000.000001
                   1000.000001
                   1000.000001
                   1000.000001
                   1000.000004
                   1000.000066
                   1000.000286
                   1000.000656
                   1000.001085
                   1000.001528
                   1000.001974
                   1000.002421
                   1000.002868
                   1000.003314
                   1000.003761
                   1000.004208
                   1000.004655
                   1000.004611
                   1000.004077
                   1000.003542
                   1000.003008
                   1000.002474
                   1000.001940
                   1000.001408
                   1000.000887
                   1000.000424
                   1000.000132
                   1000.000026
                   1000.000003
                   1000.000002
                   1000.000002
                   1000.000001
                   1000.000001
                   1000.000001
                   1000.000001
                   1000.000000
                   1000.000000
        </DataArray>
        <DataArray type="Float32" Name="rho_g" format="ascii">
                      0.500011
                      0.500033
                      0.500056
                      0.500078
                      0.500100
                      0.500122
                      0.500145
                      0.500371
                      0.506568
                      0.528588
                      0.565613
                      0.608485
                      0.652818
                      0.697436
                      0.742100
                      0.786771
                      0.831443
                      0.876114
                      0.920786
                      0.965458
                      0.961080
                      0.907651
                      0.854223
                      0.800795
                      0.747374
                      0.693988
                      0.640808
                      0.588726
                      0.542391
                      0.513168
                      0.502585
                      0.500257
                      0.500201
                      0.500174
                      0.500147
                      0.500120
                      0.500094
                      0.500067
                      0.500040
                      0.500013
        </DataArray>
      </CellData>
      <PointData>
        <DataArray type="Int32" Name="node_id" format="ascii">
          0
          1
          2
          3
          4
          5
          6
          7
          8
          9
          10
          11
          12
          13
          14
          15
          16
          17
          18
          19
          20
          21
          22
          23
          24
          25
          26
          27
          28
          29
          30
          31
          32
          33
          34
          35
          36
          37
          38
          39
          40
        </DataArray>
        <DataArray type="Float32" Name="v_l" format="ascii">
                     -0.270093
                     -0.232222
                     -0.180942
                     -0.132329
                     -0.081531
                     -0.029375
                      0.012361
                      1.329222
                     -0.346111
                     -0.669571
                     -0.746149
                     -0.760171
                     -0.762699
                     -0.763090
                     -0.763149
                     -0.763157
                     -0.763157
                     -0.763157
                     -0.763157
                     -0.763156
                     -0.763156
                     -0.763157
                     -0.763157
                     -0.763160
                     -0.763180
                     -0.763302
                     -0.763994
                     -0.767735
                     -0.787642
                     -0.899170
                     -1.157621
                     -2.006590
                     -3.326013
                     -2.120610
                     -0.384307
                     -0.384308
                     -0.384312
                     -0.384316
                     -0.384321
                     -0.384326
                     -0.384330
        </DataArray>
        <DataArray type="Float32" Name="v_g" format="ascii">
                     -0.764301
                     -0.764273
                     -0.764238
                     -0.764201
                     -0.764163
                     -0.764124
                     -0.764085
                     -0.767621
                     -0.812390
                     -0.906264
                     -0.927014
                     -0.928099
                     -0.927819
                     -0.927677
                     -0.927647
                     -0.927638
                     -0.927634
                     -0.927678
                     -0.927702
                     -0.927702
                     -0.711670
                     -0.583242
                     -0.583288
                     -0.583285
                     -0.583290
                     -0.583344
                     -0.583671
                     -0.585445
                     -0.593971
                     -0.655433
                     -0.731288
                     -0.762462
                     -0.767639
                     -0.767749
                     -0.767815
                     -0.767878
                     -0.767936
                     -0.767991
                     -0.768042
                     -0.768097
                     -0.768132
        </DataArray>
      </PointData>
    </Piece>
  </UnstructuredGrid>
</VTKFile>
