<VTKFile type="UnstructuredGrid" version="0.1" byte_order="LittleEndian">
  <UnstructuredGrid>
    <Piece NumberOfPoints="201" NumberOfCells="200">
      <Points>
        <DataArray type = "Float32" NumberOfComponents="3" format="ascii">
          0.000000 0 0
          0.100000 0 0
          0.200000 0 0
          0.300000 0 0
          0.400000 0 0
          0.500000 0 0
          0.600000 0 0
          0.700000 0 0
          0.800000 0 0
          0.900000 0 0
          1.000000 0 0
          1.100000 0 0
          1.200000 0 0
          1.300000 0 0
          1.400000 0 0
          1.500000 0 0
          1.600000 0 0
          1.700000 0 0
          1.800000 0 0
          1.900000 0 0
          2.000000 0 0
          2.100000 0 0
          2.200000 0 0
          2.300000 0 0
          2.400000 0 0
          2.500000 0 0
          2.600000 0 0
          2.700000 0 0
          2.800000 0 0
          2.900000 0 0
          3.000000 0 0
          3.100000 0 0
          3.200000 0 0
          3.300000 0 0
          3.400000 0 0
          3.500000 0 0
          3.600000 0 0
          3.700000 0 0
          3.800000 0 0
          3.900000 0 0
          4.000000 0 0
          4.100000 0 0
          4.200000 0 0
          4.300000 0 0
          4.400000 0 0
          4.500000 0 0
          4.600000 0 0
          4.700000 0 0
          4.800000 0 0
          4.900000 0 0
          5.000000 0 0
          5.100000 0 0
          5.200000 0 0
          5.300000 0 0
          5.400000 0 0
          5.500000 0 0
          5.600000 0 0
          5.700000 0 0
          5.800000 0 0
          5.900000 0 0
          6.000000 0 0
          6.100000 0 0
          6.200000 0 0
          6.300000 0 0
          6.400000 0 0
          6.500000 0 0
          6.600000 0 0
          6.700000 0 0
          6.800000 0 0
          6.900000 0 0
          7.000000 0 0
          7.100000 0 0
          7.200000 0 0
          7.300000 0 0
          7.400000 0 0
          7.500000 0 0
          7.600000 0 0
          7.700000 0 0
          7.800000 0 0
          7.900000 0 0
          8.000000 0 0
          8.100000 0 0
          8.200000 0 0
          8.300000 0 0
          8.400000 0 0
          8.500000 0 0
          8.600000 0 0
          8.700000 0 0
          8.800000 0 0
          8.900000 0 0
          9.000000 0 0
          9.100000 0 0
          9.200000 0 0
          9.300000 0 0
          9.400000 0 0
          9.500000 0 0
          9.600000 0 0
          9.700000 0 0
          9.800000 0 0
          9.900000 0 0
          10.000000 0 0
          10.100000 0 0
          10.200000 0 0
          10.300000 0 0
          10.400000 0 0
          10.500000 0 0
          10.600000 0 0
          10.700000 0 0
          10.800000 0 0
          10.900000 0 0
          11.000000 0 0
          11.100000 0 0
          11.200000 0 0
          11.300000 0 0
          11.400000 0 0
          11.500000 0 0
          11.600000 0 0
          11.700000 0 0
          11.800000 0 0
          11.900000 0 0
          12.000000 0 0
          12.100000 0 0
          12.200000 0 0
          12.300000 0 0
          12.400000 0 0
          12.500000 0 0
          12.600000 0 0
          12.700000 0 0
          12.800000 0 0
          12.900000 0 0
          13.000000 0 0
          13.100000 0 0
          13.200000 0 0
          13.300000 0 0
          13.400000 0 0
          13.500000 0 0
          13.600000 0 0
          13.700000 0 0
          13.800000 0 0
          13.900000 0 0
          14.000000 0 0
          14.100000 0 0
          14.200000 0 0
          14.300000 0 0
          14.400000 0 0
          14.500000 0 0
          14.600000 0 0
          14.700000 0 0
          14.800000 0 0
          14.900000 0 0
          15.000000 0 0
          15.100000 0 0
          15.200000 0 0
          15.300000 0 0
          15.400000 0 0
          15.500000 0 0
          15.600000 0 0
          15.700000 0 0
          15.800000 0 0
          15.900000 0 0
          16.000000 0 0
          16.100000 0 0
          16.200000 0 0
          16.300000 0 0
          16.400000 0 0
          16.500000 0 0
          16.600000 0 0
          16.700000 0 0
          16.800000 0 0
          16.900000 0 0
          17.000000 0 0
          17.100000 0 0
          17.200000 0 0
          17.300000 0 0
          17.400000 0 0
          17.500000 0 0
          17.600000 0 0
          17.700000 0 0
          17.800000 0 0
          17.900000 0 0
          18.000000 0 0
          18.100000 0 0
          18.200000 0 0
          18.300000 0 0
          18.400000 0 0
          18.500000 0 0
          18.600000 0 0
          18.700000 0 0
          18.800000 0 0
          18.900000 0 0
          19.000000 0 0
          19.100000 0 0
          19.200000 0 0
          19.300000 0 0
          19.400000 0 0
          19.500000 0 0
          19.600000 0 0
          19.700000 0 0
          19.800000 0 0
          19.900000 0 0
          20.000000 0 0
        </DataArray>
      </Points>
      <Cells>
        <DataArray type = "Int32" Name="connectivity" format="ascii">
          0 1
          1 2
          2 3
          3 4
          4 5
          5 6
          6 7
          7 8
          8 9
          9 10
          10 11
          11 12
          12 13
          13 14
          14 15
          15 16
          16 17
          17 18
          18 19
          19 20
          20 21
          21 22
          22 23
          23 24
          24 25
          25 26
          26 27
          27 28
          28 29
          29 30
          30 31
          31 32
          32 33
          33 34
          34 35
          35 36
          36 37
          37 38
          38 39
          39 40
          40 41
          41 42
          42 43
          43 44
          44 45
          45 46
          46 47
          47 48
          48 49
          49 50
          50 51
          51 52
          52 53
          53 54
          54 55
          55 56
          56 57
          57 58
          58 59
          59 60
          60 61
          61 62
          62 63
          63 64
          64 65
          65 66
          66 67
          67 68
          68 69
          69 70
          70 71
          71 72
          72 73
          73 74
          74 75
          75 76
          76 77
          77 78
          78 79
          79 80
          80 81
          81 82
          82 83
          83 84
          84 85
          85 86
          86 87
          87 88
          88 89
          89 90
          90 91
          91 92
          92 93
          93 94
          94 95
          95 96
          96 97
          97 98
          98 99
          99 100
          100 101
          101 102
          102 103
          103 104
          104 105
          105 106
          106 107
          107 108
          108 109
          109 110
          110 111
          111 112
          112 113
          113 114
          114 115
          115 116
          116 117
          117 118
          118 119
          119 120
          120 121
          121 122
          122 123
          123 124
          124 125
          125 126
          126 127
          127 128
          128 129
          129 130
          130 131
          131 132
          132 133
          133 134
          134 135
          135 136
          136 137
          137 138
          138 139
          139 140
          140 141
          141 142
          142 143
          143 144
          144 145
          145 146
          146 147
          147 148
          148 149
          149 150
          150 151
          151 152
          152 153
          153 154
          154 155
          155 156
          156 157
          157 158
          158 159
          159 160
          160 161
          161 162
          162 163
          163 164
          164 165
          165 166
          166 167
          167 168
          168 169
          169 170
          170 171
          171 172
          172 173
          173 174
          174 175
          175 176
          176 177
          177 178
          178 179
          179 180
          180 181
          181 182
          182 183
          183 184
          184 185
          185 186
          186 187
          187 188
          188 189
          189 190
          190 191
          191 192
          192 193
          193 194
          194 195
          195 196
          196 197
          197 198
          198 199
          199 200
        </DataArray>
        <DataArray type = "Int32" Name="offsets" format="ascii">
          2
          4
          6
          8
          10
          12
          14
          16
          18
          20
          22
          24
          26
          28
          30
          32
          34
          36
          38
          40
          42
          44
          46
          48
          50
          52
          54
          56
          58
          60
          62
          64
          66
          68
          70
          72
          74
          76
          78
          80
          82
          84
          86
          88
          90
          92
          94
          96
          98
          100
          102
          104
          106
          108
          110
          112
          114
          116
          118
          120
          122
          124
          126
          128
          130
          132
          134
          136
          138
          140
          142
          144
          146
          148
          150
          152
          154
          156
          158
          160
          162
          164
          166
          168
          170
          172
          174
          176
          178
          180
          182
          184
          186
          188
          190
          192
          194
          196
          198
          200
          202
          204
          206
          208
          210
          212
          214
          216
          218
          220
          222
          224
          226
          228
          230
          232
          234
          236
          238
          240
          242
          244
          246
          248
          250
          252
          254
          256
          258
          260
          262
          264
          266
          268
          270
          272
          274
          276
          278
          280
          282
          284
          286
          288
          290
          292
          294
          296
          298
          300
          302
          304
          306
          308
          310
          312
          314
          316
          318
          320
          322
          324
          326
          328
          330
          332
          334
          336
          338
          340
          342
          344
          346
          348
          350
          352
          354
          356
          358
          360
          362
          364
          366
          368
          370
          372
          374
          376
          378
          380
          382
          384
          386
          388
          390
          392
          394
          396
          398
          400
        </DataArray>
        <DataArray type = "UInt8" Name="types" format="ascii">
          3
          3
          3
          3
          3
          3
          3
          3
          3
          3
          3
          3
          3
          3
          3
          3
          3
          3
          3
          3
          3
          3
          3
          3
          3
          3
          3
          3
          3
          3
          3
          3
          3
          3
          3
          3
          3
          3
          3
          3
          3
          3
          3
          3
          3
          3
          3
          3
          3
          3
          3
          3
          3
          3
          3
          3
          3
          3
          3
          3
          3
          3
          3
          3
          3
          3
          3
          3
          3
          3
          3
          3
          3
          3
          3
          3
          3
          3
          3
          3
          3
          3
          3
          3
          3
          3
          3
          3
          3
          3
          3
          3
          3
          3
          3
          3
          3
          3
          3
          3
          3
          3
          3
          3
          3
          3
          3
          3
          3
          3
          3
          3
          3
          3
          3
          3
          3
          3
          3
          3
          3
          3
          3
          3
          3
          3
          3
          3
          3
          3
          3
          3
          3
          3
          3
          3
          3
          3
          3
          3
          3
          3
          3
          3
          3
          3
          3
          3
          3
          3
          3
          3
          3
          3
          3
          3
          3
          3
          3
          3
          3
          3
          3
          3
          3
          3
          3
          3
          3
          3
          3
          3
          3
          3
          3
          3
          3
          3
          3
          3
          3
          3
          3
          3
          3
          3
          3
          3
          3
          3
          3
          3
          3
          3
          3
          3
          3
          3
          3
          3
        </DataArray>
      </Cells>
      <CellData>
        <DataArray type="Float32" Name="alpha" format="ascii">
                      1.000000
                      1.000000
                      1.000000
                      1.000000
                      1.000000
                      1.000000
                      1.000000
                      1.000000
                      1.000000
                      1.000000
                      1.000000
                      1.000000
                      1.000000
                      1.000000
                      1.000000
                      1.000000
                      1.000000
                      1.000000
                      1.000000
                      1.000000
                      1.000000
                      1.000000
                      1.000000
                      1.000000
                      1.000000
                      1.000000
                      1.000000
                      1.000000
                      1.000000
                      1.000000
                      1.000000
                      1.000000
                      1.000000
                      1.000000
                      1.000000
                      1.000000
                      1.000000
                      1.000000
                      1.000000
                      1.000000
                      1.000000
                      1.000000
                      0.971730
                      0.632142
                      0.123971
                      0.022823
                      0.005623
                      0.001476
                      0.000376
                      0.000091
                      0.000020
                      0.000004
                      0.000001
                      0.000000
                      0.000000
                      0.000000
                      0.000000
                      0.000000
                      0.000000
                      0.000000
                      0.000000
                      0.000000
                      0.000000
                      0.000000
                      0.000000
                      0.000000
                      0.000000
                      0.000000
                      0.000000
                      0.000000
                      0.000000
                      0.000000
                      0.000000
                      0.000000
                      0.000000
                      0.000000
                      0.000000
                      0.000000
                      0.000000
                      0.000000
                      0.000000
                      0.000000
                      0.000000
                      0.000000
                      0.000000
                      0.000000
                      0.000000
                      0.000000
                      0.000000
                      0.000000
                      0.000000
                      0.000000
                      0.000000
                      0.000000
                      0.000000
                      0.000000
                      0.000000
                      0.000000
                      0.000000
                      0.000000
                      0.000000
                      0.000000
                      0.000000
                      0.000000
                      0.000000
                      0.000000
                      0.000000
                      0.000000
                      0.000000
                      0.000000
                      0.000000
                      0.000000
                      0.000000
                      0.000000
                      0.000000
                      0.000000
                      0.000000
                      0.000000
                      0.000000
                      0.000000
                      0.000000
                      0.000000
                      0.000000
                      0.000000
                      0.000000
                      0.000000
                      0.000000
                      0.000000
                      0.000000
                      0.000000
                      0.000000
                      0.000000
                      0.000000
                      0.000000
                      0.000000
                      0.000001
                      0.000003
                      0.000013
                      0.000058
                      0.000256
                      0.001139
                      0.005283
                      0.032024
                      0.282721
                      0.920240
                      1.000000
                      1.000000
                      1.000000
                      1.000000
                      1.000000
                      1.000000
                      1.000000
                      1.000000
                      1.000000
                      1.000000
                      1.000000
                      1.000000
                      1.000000
                      1.000000
                      1.000000
                      1.000000
                      1.000000
                      1.000000
                      1.000000
                      1.000000
                      1.000000
                      1.000000
                      1.000000
                      1.000000
                      1.000000
                      1.000000
                      1.000000
                      1.000000
                      1.000000
                      1.000000
                      1.000000
                      1.000000
                      1.000000
                      1.000000
                      1.000000
                      1.000000
                      1.000000
                      1.000000
                      1.000000
                      1.000000
                      1.000000
                      1.000000
                      1.000000
                      1.000000
                      1.000000
                      1.000000
                      1.000000
                      1.000000
                      1.000000
                      1.000000
                      1.000000
                      1.000000
                      1.000000
                      1.000000
                      1.000000
        </DataArray>
        <DataArray type="Float32" Name="p" format="ascii">
                 100000.214392
                 100000.643180
                 100001.071973
                 100001.500772
                 100001.929578
                 100002.358392
                 100002.787214
                 100003.216044
                 100003.644885
                 100004.073736
                 100004.502598
                 100004.931471
                 100005.360357
                 100005.789256
                 100006.218168
                 100006.647095
                 100007.076036
                 100007.504992
                 100007.933965
                 100008.362954
                 100008.791959
                 100009.220982
                 100009.650024
                 100010.079083
                 100010.508162
                 100010.937260
                 100011.366378
                 100011.795516
                 100012.224675
                 100012.653855
                 100013.083056
                 100013.512279
                 100013.941524
                 100014.370791
                 100014.800082
                 100015.229395
                 100015.658731
                 100016.088090
                 100016.517474
                 100016.946881
                 100017.376311
                 100017.805766
                 100019.392745
                 100184.635385
                 100746.834551
                 101549.721349
                 102397.663329
                 103254.113012
                 104112.709944
                 104971.877640
                 105831.191998
                 106690.541836
                 107549.899756
                 108409.259055
                 109268.618422
                 110127.977874
                 110987.337415
                 111846.697046
                 112706.056767
                 113565.416579
                 114424.776481
                 115284.136474
                 116143.496558
                 117002.856734
                 117862.217002
                 118721.577362
                 119580.937814
                 120440.298359
                 121299.658997
                 122159.019729
                 123018.380553
                 123877.741472
                 124737.102485
                 125596.463592
                 126455.824794
                 127315.186091
                 128174.547483
                 129033.908970
                 129893.270554
                 130752.632233
                 131611.994009
                 132471.355882
                 133330.717852
                 134190.079918
                 135049.442083
                 135908.804345
                 136768.166706
                 137627.529165
                 138486.891722
                 139346.254378
                 140205.617134
                 141064.979990
                 141924.342945
                 142783.706000
                 143643.069156
                 144502.432412
                 145361.795770
                 146221.159228
                 147080.522789
                 147939.886447
                 147818.246435
                 146715.602775
                 145612.959197
                 144510.315767
                 143407.672464
                 142305.029288
                 141202.386239
                 140099.743319
                 138997.100527
                 137894.457864
                 136791.815330
                 135689.172925
                 134586.530649
                 133483.888503
                 132381.246488
                 131278.604602
                 130175.962848
                 129073.321224
                 127970.679732
                 126868.038371
                 125765.397142
                 124662.756045
                 123560.115081
                 122457.474249
                 121354.833551
                 120252.192985
                 119149.552554
                 118046.912256
                 116944.272093
                 115841.632064
                 114738.992170
                 113636.352411
                 112533.712787
                 111431.073299
                 110328.433945
                 109225.794722
                 108123.156490
                 107020.525151
                 105917.923806
                 104815.454163
                 103713.570050
                 102614.409664
                 101532.041600
                 100600.335408
                 100121.412847
                 100029.935946
                 100029.387353
                 100028.836908
                 100028.286514
                 100027.736171
                 100027.185879
                 100026.635636
                 100026.085442
                 100025.535297
                 100024.985201
                 100024.435152
                 100023.885151
                 100023.335198
                 100022.785292
                 100022.235434
                 100021.685623
                 100021.135860
                 100020.586145
                 100020.036476
                 100019.486855
                 100018.937280
                 100018.387753
                 100017.838271
                 100017.288836
                 100016.739447
                 100016.190102
                 100015.640802
                 100015.091547
                 100014.542334
                 100013.993164
                 100013.444036
                 100012.894948
                 100012.345900
                 100011.796891
                 100011.247919
                 100010.698984
                 100010.150084
                 100009.601217
                 100009.052384
                 100008.503581
                 100007.954808
                 100007.406064
                 100006.857346
                 100006.308653
                 100005.759985
                 100005.211338
                 100004.662713
                 100004.114106
                 100003.565517
                 100003.016943
                 100002.468384
                 100001.919838
                 100001.371302
                 100000.822776
                 100000.274258
        </DataArray>
        <DataArray type="Float32" Name="rho_l" format="ascii">
                   1000.000000
                   1000.000000
                   1000.000000
                   1000.000000
                   1000.000000
                   1000.000000
                   1000.000000
                   1000.000000
                   1000.000000
                   1000.000000
                   1000.000000
                   1000.000000
                   1000.000001
                   1000.000001
                   1000.000001
                   1000.000001
                   1000.000001
                   1000.000001
                   1000.000001
                   1000.000001
                   1000.000001
                   1000.000001
                   1000.000001
                   1000.000001
                   1000.000001
                   1000.000001
                   1000.000001
                   1000.000001
                   1000.000001
                   1000.000001
                   1000.000001
                   1000.000001
                   1000.000001
                   1000.000001
                   1000.000001
                   1000.000002
                   1000.000002
                   1000.000002
                   1000.000002
                   1000.000002
                   1000.000002
                   1000.000002
                   1000.000002
                   1000.000018
                   1000.000075
                   1000.000155
                   1000.000240
                   1000.000325
                   1000.000411
                   1000.000497
                   1000.000583
                   1000.000669
                   1000.000755
                   1000.000841
                   1000.000927
                   1000.001013
                   1000.001099
                   1000.001185
                   1000.001271
                   1000.001357
                   1000.001442
                   1000.001528
                   1000.001614
                   1000.001700
                   1000.001786
                   1000.001872
                   1000.001958
                   1000.002044
                   1000.002130
                   1000.002216
                   1000.002302
                   1000.002388
                   1000.002474
                   1000.002560
                   1000.002646
                   1000.002732
                   1000.002817
                   1000.002903
                   1000.002989
                   1000.003075
                   1000.003161
                   1000.003247
                   1000.003333
                   1000.003419
                   1000.003505
                   1000.003591
                   1000.003677
                   1000.003763
                   1000.003849
                   1000.003935
                   1000.004021
                   1000.004106
                   1000.004192
                   1000.004278
                   1000.004364
                   1000.004450
                   1000.004536
                   1000.004622
                   1000.004708
                   1000.004794
                   1000.004782
                   1000.004672
                   1000.004561
                   1000.004451
                   1000.004341
                   1000.004231
                   1000.004120
                   1000.004010
                   1000.003900
                   1000.003789
                   1000.003679
                   1000.003569
                   1000.003459
                   1000.003348