<VTKFile type="UnstructuredGrid" version="0.1" byte_order="LittleEndian">
  <UnstructuredGrid>
    <Piece NumberOfPoints="41" NumberOfCells="40">
      <Points>
        <DataArray type = "Float32" NumberOfComponents="3" format="ascii">
          0.000000 0 0
          0.500000 0 0
          1.000000 0 0
          1.500000 0 0
          2.000000 0 0
          2.500000 0 0
          3.000000 0 0
          3.500000 0 0
          4.000000 0 0
          4.500000 0 0
          5.000000 0 0
          5.500000 0 0
          6.000000 0 0
          6.500000 0 0
          7.000000 0 0
          7.500000 0 0
          8.000000 0 0
          8.500000 0 0
          9.000000 0 0
          9.500000 0 0
          10.000000 0 0
          10.500000 0 0
          11.000000 0 0
          11.500000 0 0
          12.000000 0 0
          12.500000 0 0
          13.000000 0 0
          13.500000 0 0
          14.000000 0 0
          14.500000 0 0
          15.000000 0 0
          15.500000 0 0
          16.000000 0 0
          16.500000 0 0
          17.000000 0 0
          17.500000 0 0
          18.000000 0 0
          18.500000 0 0
          19.000000 0 0
          19.500000 0 0
          20.000000 0 0
        </DataArray>
      </Points>
      <Cells>
        <DataArray type = "Int32" Name="connectivity" format="ascii">
          0 1
          1 2
          2 3
          3 4
          4 5
          5 6
          6 7
          7 8
          8 9
          9 10
          10 11
          11 12
          12 13
          13 14
          14 15
          15 16
          16 17
          17 18
          18 19
          19 20
          20 21
          21 22
          22 23
          23 24
          24 25
          25 26
          26 27
          27 28
          28 29
          29 30
          30 31
          31 32
          32 33
          33 34
          34 35
          35 36
          36 37
          37 38
          38 39
          39 40
        </DataArray>
        <DataArray type = "Int32" Name="offsets" format="ascii">
          2
          4
          6
          8
          10
          12
          14
          16
          18
          20
          22
          24
          26
          28
          30
          32
          34
          36
          38
          40
          42
          44
          46
          48
          50
          52
          54
          56
          58
          60
          62
          64
          66
          68
          70
          72
          74
          76
          78
          80
        </DataArray>
        <DataArray type = "UInt8" Name="types" format="ascii">
          3
          3
          3
          3
          3
          3
          3
          3
          3
          3
          3
          3
          3
          3
          3
          3
          3
          3
          3
          3
          3
          3
          3
          3
          3
          3
          3
          3
          3
          3
          3
          3
          3
          3
          3
          3
          3
          3
          3
          3
        </DataArray>
      </Cells>
      <CellData>
        <DataArray type="Float32" Name="alpha" format="ascii">
                      1.000000
                      1.000000
                      1.000000
                      1.000000
                      1.000000
                      1.000000
                      1.000000
                      0.974475
                      0.597797
                      0.152683
                      0.033695
                      0.006477
                      0.001070
                      0.000163
                      0.000023
                      0.000003
                      0.000000
                      0.000000
                      0.000000
                      0.000000
                      0.000000
                      0.000001
                      0.000008
                      0.000054
                      0.000343
                      0.002023
                      0.011176
                      0.059233
                      0.326386
                      0.839241
                      0.995148
                      0.999999
                      1.000000
                      1.000000
                      1.000000
                      1.000000
                      1.000000
                      1.000000
                      1.000000
                      1.000000
        </DataArray>
        <DataArray type="Float32" Name="p" format="ascii">
                 100001.041535
                 100003.124643
                 100005.207831
                 100007.291108
                 100009.374493
                 100011.458001
                 100013.541775
                 100060.286024
                 101027.968873
                 103414.233156
                 106887.377780
                 110636.122300
                 114446.622605
                 118269.079222
                 122093.523973
                 125918.280759
                 129743.090673
                 133567.916617
                 137392.753087
                 141217.597984
                 140677.880768
                 135773.607828
                 130869.366964
                 125965.270123
                 121062.003695
                 116163.546482
                 111291.493990
                 106558.745774
                 102593.447915
                 100515.938409
                 100035.228396
                 100022.728461
                 100020.053635
                 100017.379258
                 100014.704991
                 100012.030863
                 100009.356912
                 100006.683216
                 100004.009802
                 100001.336580
        </DataArray>
        <DataArray type="Float32" Name="rho_l" format="ascii">
                    889.795131
                    889.796138
                    889.796598
                    889.796900
                    889.797797
                    889.800332
                    889.801509
                    889.793045
                    889.793645
                    889.795200
                    889.797551
                    889.800162
                    889.802805
                    889.805439
                    889.808081
                    889.810731
                    889.813331
                    889.815845
                    889.818092
                    889.819932
                    889.819340
                    889.816157
                    889.812939
                    889.809750
                    889.806551
                    889.803344
                    889.800138
                    889.797048
                    889.794577
                    889.793366
                    889.793458
                    889.847796
                    889.854347
                    889.868438
                    889.873244
                    889.872806
                    889.860968
                    889.828104
                    889.801279
                    889.793744
        </DataArray>
        <DataArray type="Float32" Name="rho_g" format="ascii">
                      0.484591
                      0.484603
                      0.484613
                      0.484624
                      0.484635
                      0.484648
                      0.484659
                      0.484851
                      0.489283
                      0.501365
                      0.518436
                      0.536717
                      0.555478
                      0.574278
                      0.593062
                      0.611843
                      0.630623
                      0.649403
                      0.668183
                      0.686962
                      0.684312
                      0.660232
                      0.636152
                      0.612075
                      0.588009
                      0.564004
                      0.540302
                      0.516754
                      0.496585
                      0.487014
                      0.484865
                      0.484753
                      0.484746
                      0.484748
                      0.484740
                      0.484726
                      0.484701
                      0.484653
                      0.484612
                      0.484591
        </DataArray>
        <DataArray type="Float32" Name="T_l" format="ascii">
                    449.998035
                    449.997094
                    449.996664
                    449.996384
                    449.995545
                    449.993175
                    449.992075
                    450.000023
                    450.000059
                    450.000077
                    450.000022
                    449.999893
                    449.999772
                    449.999668
                    449.999557
                    449.999438
                    449.999367
                    449.999375
                    449.999635
                    450.000273
                    450.000493
                    450.000443
                    450.000427
                    450.000383
                    450.000349
                    450.000326
                    450.000319
                    450.000288
                    450.000153
                    450.000004
                    449.999621
                    449.948773
                    449.942642
                    449.929455
                    449.924957
                    449.925366
                    449.936440
                    449.967187
                    449.992284
                    449.999332
        </DataArray>
        <DataArray type="Float32" Name="T_g" format="ascii">
                    449.998035
                    449.997094
                    449.996664
                    449.996384
                    449.995545
                    449.993175
                    449.992096
                    450.026038
                    450.312394
                    449.985515
                    449.970935
                    450.073699
                    450.030306
                    450.005799
                    450.000603
                    449.999598
                    449.999389
                    449.999379
                    449.999636
                    450.000274
                    450.000494
                    450.000397
                    450.000166
                    449.998841
                    449.992141
                    449.956063
                    449.777641
                    450.028291
                    450.646199
                    450.093029
                    449.902624
                    449.948086
                    449.942642
                    449.929455
                    449.924957
                    449.925366
                    449.936440
                    449.967187
                    449.992284
                    449.999332
        </DataArray>
      </CellData>
      <PointData>
        <DataArray type="Int32" Name="node_id" format="ascii">
          0
          1
          2
          3
          4
          5
          6
          7
          8
          9
          10
          11
          12
          13
          14
          15
          16
          17
          18
          19
          20
          21
          22
          23
          24
          25
          26
          27
          28
          29
          30
          31
          32
          33
          34
          35
          36
          37
          38
          39
          40
        </DataArray>
        <DataArray type="Float32" Name="v_l" format="ascii">
                      0.532671
                      0.538646
                      0.558183
                      0.598454
                      0.657949
                      0.665912
                      1.800551
                      1.844367
                      0.870167
                      0.585502
                      0.518051
                      0.506817
                      0.504405
                      0.503937
                      0.503858
                      0.503845
                      0.503842
                      0.503841
                      0.503840
                      0.503839
                      0.503838
                      0.503838
                      0.503839
                      0.503838
                      0.503826
                      0.503752
                      0.503316
                      0.500888
                      0.486491
                      0.365734
                     -0.144267
                     -2.540346
                     -1.948574
                      0.341021
                      0.418479
                      0.425573
                      0.462113
                      0.483520
                      0.493585
                      0.500868
                      0.502887
        </DataArray>
        <DataArray type="Float32" Name="v_g" format="ascii">
                      0.505833
                      0.505825
                      0.505813
                      0.505800
                      0.505785
                      0.505768
                      0.505749
                      0.505728
                      0.491345
                      0.381565
                      0.348497
                      0.343799
                      0.342741
                      0.342533
                      0.342499
                      0.342494
                      0.342494
                      0.432250
                      0.471394
                      0.475319
                      0.522556
                      0.647473
                      0.686539
                      0.686543
                      0.686550
                      0.686569
                      0.686635
                      0.686924
                      0.690005
                      0.650575
                      0.542750
                      0.506960
                      0.505791
                      0.505798
                      0.505807
                      0.505816
                      0.505825
                      0.505835
                      0.505844
                      0.505854
                      0.505862
        </DataArray>
      </PointData>
    </Piece>
  </UnstructuredGrid>
</VTKFile>
