<VTKFile type="UnstructuredGrid" version="0.1" byte_order="LittleEndian">
  <UnstructuredGrid>
    <Piece NumberOfPoints="41" NumberOfCells="40">
      <Points>
        <DataArray type = "Float32" NumberOfComponents="3" format="ascii">
          0.000000 0 0
          0.500000 0 0
          1.000000 0 0
          1.500000 0 0
          2.000000 0 0
          2.500000 0 0
          3.000000 0 0
          3.500000 0 0
          4.000000 0 0
          4.500000 0 0
          5.000000 0 0
          5.500000 0 0
          6.000000 0 0
          6.500000 0 0
          7.000000 0 0
          7.500000 0 0
          8.000000 0 0
          8.500000 0 0
          9.000000 0 0
          9.500000 0 0
          10.000000 0 0
          10.500000 0 0
          11.000000 0 0
          11.500000 0 0
          12.000000 0 0
          12.500000 0 0
          13.000000 0 0
          13.500000 0 0
          14.000000 0 0
          14.500000 0 0
          15.000000 0 0
          15.500000 0 0
          16.000000 0 0
          16.500000 0 0
          17.000000 0 0
          17.500000 0 0
          18.000000 0 0
          18.500000 0 0
          19.000000 0 0
          19.500000 0 0
          20.000000 0 0
        </DataArray>
      </Points>
      <Cells>
        <DataArray type = "Int32" Name="connectivity" format="ascii">
          0 1
          1 2
          2 3
          3 4
          4 5
          5 6
          6 7
          7 8
          8 9
          9 10
          10 11
          11 12
          12 13
          13 14
          14 15
          15 16
          16 17
          17 18
          18 19
          19 20
          20 21
          21 22
          22 23
          23 24
          24 25
          25 26
          26 27
          27 28
          28 29
          29 30
          30 31
          31 32
          32 33
          33 34
          34 35
          35 36
          36 37
          37 38
          38 39
          39 40
        </DataArray>
        <DataArray type = "Int32" Name="offsets" format="ascii">
          2
          4
          6
          8
          10
          12
          14
          16
          18
          20
          22
          24
          26
          28
          30
          32
          34
          36
          38
          40
          42
          44
          46
          48
          50
          52
          54
          56
          58
          60
          62
          64
          66
          68
          70
          72
          74
          76
          78
          80
        </DataArray>
        <DataArray type = "UInt8" Name="types" format="ascii">
          3
          3
          3
          3
          3
          3
          3
          3
          3
          3
          3
          3
          3
          3
          3
          3
          3
          3
          3
          3
          3
          3
          3
          3
          3
          3
          3
          3
          3
          3
          3
          3
          3
          3
          3
          3
          3
          3
          3
          3
        </DataArray>
      </Cells>
      <CellData>
        <DataArray type="Float32" Name="alpha" format="ascii">
                      1.000000
                      1.000000
                      1.000000
                      1.000000
                      1.000000
                      1.000000
                      1.000000
                      0.974727
                      0.599739
                      0.153403
                      0.033826
                      0.006505
                      0.001076
                      0.000164
                      0.000023
                      0.000003
                      0.000000
                      0.000000
                      0.000000
                      0.000000
                      0.000000
                      0.000001
                      0.000008
                      0.000054
                      0.000341
                      0.002012
                      0.011117
                      0.058923
                      0.324827
                      0.838106
                      0.995144
                      0.999999
                      1.000000
                      1.000000
                      1.000000
                      1.000000
                      1.000000
                      1.000000
                      1.000000
                      1.000000
        </DataArray>
        <DataArray type="Float32" Name="p" format="ascii">
                 100001.041302
                 100003.123946
                 100005.206680
                 100007.289521
                 100009.372498
                 100011.455639
                 100013.539112
                 100060.269941
                 101024.791667
                 103406.646255
                 106879.408028
                 110629.158668
                 114440.919717
                 118264.691228
                 122090.460887
                 125916.544076
                 129742.680407
                 133568.832510
                 137394.994802
                 141221.165132
                 140682.772888
                 135779.824382
                 130876.907263
                 125974.132726
                 121072.182659
                 116175.010090
                 111304.075940
                 106571.583127
                 102602.293578
                 100518.224874
                 100035.247127
                 100022.729441
                 100020.054561
                 100017.380107
                 100014.705744
                 100012.031504
                 100009.357426
                 100006.683592
                 100004.010031
                 100001.336657
        </DataArray>
        <DataArray type="Float32" Name="rho_l" format="ascii">
                    889.795118
                    889.796128
                    889.796592
                    889.796893
                    889.797789
                    889.800326
                    889.801500
                    889.793045
                    889.793642
                    889.795194
                    889.797545
                    889.800156
                    889.802800
                    889.805434
                    889.808077
                    889.810728
                    889.813329
                    889.815844
                    889.818092
                    889.819935
                    889.819343
                    889.816163
                    889.812945
                    889.809757
                    889.806558
                    889.803352
                    889.800146
                    889.797056
                    889.794583
                    889.793370
                    889.793465
                    889.847922
                    889.854348
                    889.868418
                    889.873247
                    889.872816
                    889.861033
                    889.828231
                    889.801337
                    889.793761
        </DataArray>
        <DataArray type="Float32" Name="rho_g" format="ascii">
                      0.484591
                      0.484603
                      0.484613
                      0.484624
                      0.484635
                      0.484648
                      0.484659
                      0.484851
                      0.489266
                      0.501320
                      0.518391
                      0.536680
                      0.555450
                      0.574256
                      0.593047
                      0.611835
                      0.630621
                      0.649408
                      0.668194
                      0.686979
                      0.684336
                      0.660262
                      0.636189
                      0.612119
                      0.588059
                      0.564060
                      0.540362
                      0.516822
                      0.496629
                      0.487024
                      0.484866
                      0.484753
                      0.484746
                      0.484748
                      0.484740
                      0.484726
                      0.484701
                      0.484653
                      0.484612
                      0.484591
        </DataArray>
        <DataArray type="Float32" Name="T_l" format="ascii">
                    449.998047
                    449.997103
                    449.996671
                    449.996390
                    449.995553
                    449.993181
                    449.992083
                    450.000023
                    450.000059
                    450.000077
                    450.000023
                    449.999894
                    449.999773
                    449.999669
                    449.999558
                    449.999440
                    449.999368
                    449.999377
                    449.999635
                    450.000272
                    450.000492
                    450.000441
                    450.000426
                    450.000382
                    450.000349
                    450.000326
                    450.000318
                    450.000289
                    450.000153
                    450.000002
                    449.999614
                    449.948655
                    449.942641
                    449.929474
                    449.924954
                    449.925356
                    449.936379
                    449.967068
                    449.992230
                    449.999317
        </DataArray>
        <DataArray type="Float32" Name="T_g" format="ascii">
                    449.998047
                    449.997103
                    449.996671
                    449.996390
                    449.995553
                    449.993181
                    449.992105
                    450.026032
                    450.313276
                    449.991661
                    449.975238
                    450.075691
                    450.030946
                    450.005897
                    450.000619
                    449.999601
                    449.999391
                    449.999381
                    449.999637
                    450.000273
                    450.000494
                    450.000395
                    450.000162
                    449.998820
                    449.992070
                    449.956584
                    449.778867
                    450.023975
                    450.645866
                    450.094523
                    449.902335
                    449.947939
                    449.942642
                    449.929474
                    449.924954
                    449.925356
                    449.936379
                    449.967068
                    449.992230
                    449.999317
        </DataArray>
      </CellData>
      <PointData>
        <DataArray type="Int32" Name="node_id" format="ascii">
          0
          1
          2
          3
          4
          5
          6
          7
          8
          9
          10
          11
          12
          13
          14
          15
          16
          17
          18
          19
          20
          21
          22
          23
          24
          25
          26
          27
          28
          29
          30
          31
          32
          33
          34
          35
          36
          37
          38
          39
          40
        </DataArray>
        <DataArray type="Float32" Name="v_l" format="ascii">
                      0.537055
                      0.543243
                      0.562116
                      0.599363
                      0.653682
                      0.661597
                      1.835637
                      1.860345
                      0.874709
                      0.589104
                      0.521120
                      0.509825
                      0.507402
                      0.506932
                      0.506853
                      0.506840
                      0.506837
                      0.506836
                      0.506835
                      0.506833
                      0.506832
                      0.506832
                      0.506833
                      0.506832
                      0.506821
                      0.506747
                      0.506314
                      0.503902
                      0.489603
                      0.369621
                     -0.137775
                     -2.538076
                     -1.945153
                      0.345197
                      0.425233
                      0.430947
                      0.465964
                      0.486931
                      0.495705
                      0.502188
                      0.504960
        </DataArray>
        <DataArray type="Float32" Name="v_g" format="ascii">
                      0.508930
                      0.508923
                      0.508911
                      0.508898
                      0.508884
                      0.508868
                      0.508851
                      0.508830
                      0.494560
                      0.384921
                      0.351496
                      0.346773
                      0.345709
                      0.345500
                      0.345465
                      0.345461
                      0.345461
                      0.434992
                      0.474312
                      0.478330
                      0.525485
                      0.650022
                      0.689509
                      0.689513
                      0.689520
                      0.689539
                      0.689606
                      0.689897
                      0.692983
                      0.653994
                      0.546184
                      0.509993
                      0.508815
                      0.508822
                      0.508830
                      0.508838
                      0.508847
                      0.508856
                      0.508866
                      0.508875
                      0.508884
        </DataArray>
      </PointData>
    </Piece>
  </UnstructuredGrid>
</VTKFile>
