<VTKFile type="UnstructuredGrid" version="0.1" byte_order="LittleEndian">
  <UnstructuredGrid>
    <Piece NumberOfPoints="41" NumberOfCells="40">
      <Points>
        <DataArray type = "Float32" NumberOfComponents="3" format="ascii">
          0.000000 0 0
          0.500000 0 0
          1.000000 0 0
          1.500000 0 0
          2.000000 0 0
          2.500000 0 0
          3.000000 0 0
          3.500000 0 0
          4.000000 0 0
          4.500000 0 0
          5.000000 0 0
          5.500000 0 0
          6.000000 0 0
          6.500000 0 0
          7.000000 0 0
          7.500000 0 0
          8.000000 0 0
          8.500000 0 0
          9.000000 0 0
          9.500000 0 0
          10.000000 0 0
          10.500000 0 0
          11.000000 0 0
          11.500000 0 0
          12.000000 0 0
          12.500000 0 0
          13.000000 0 0
          13.500000 0 0
          14.000000 0 0
          14.500000 0 0
          15.000000 0 0
          15.500000 0 0
          16.000000 0 0
          16.500000 0 0
          17.000000 0 0
          17.500000 0 0
          18.000000 0 0
          18.500000 0 0
          19.000000 0 0
          19.500000 0 0
          20.000000 0 0
        </DataArray>
      </Points>
      <Cells>
        <DataArray type = "Int32" Name="connectivity" format="ascii">
          0 1
          1 2
          2 3
          3 4
          4 5
          5 6
          6 7
          7 8
          8 9
          9 10
          10 11
          11 12
          12 13
          13 14
          14 15
          15 16
          16 17
          17 18
          18 19
          19 20
          20 21
          21 22
          22 23
          23 24
          24 25
          25 26
          26 27
          27 28
          28 29
          29 30
          30 31
          31 32
          32 33
          33 34
          34 35
          35 36
          36 37
          37 38
          38 39
          39 40
        </DataArray>
        <DataArray type = "Int32" Name="offsets" format="ascii">
          2
          4
          6
          8
          10
          12
          14
          16
          18
          20
          22
          24
          26
          28
          30
          32
          34
          36
          38
          40
          42
          44
          46
          48
          50
          52
          54
          56
          58
          60
          62
          64
          66
          68
          70
          72
          74
          76
          78
          80
        </DataArray>
        <DataArray type = "UInt8" Name="types" format="ascii">
          3
          3
          3
          3
          3
          3
          3
          3
          3
          3
          3
          3
          3
          3
          3
          3
          3
          3
          3
          3
          3
          3
          3
          3
          3
          3
          3
          3
          3
          3
          3
          3
          3
          3
          3
          3
          3
          3
          3
          3
        </DataArray>
      </Cells>
      <CellData>
        <DataArray type="Float32" Name="alpha" format="ascii">
                      1.000000
                      1.000000
                      1.000000
                      1.000000
                      1.000000
                      1.000000
                      1.000000
                      0.974726
                      0.599745
                      0.153406
                      0.033826
                      0.006505
                      0.001076
                      0.000164
                      0.000023
                      0.000003
                      0.000000
                      0.000000
                      0.000000
                      0.000000
                      0.000000
                      0.000001
                      0.000008
                      0.000054
                      0.000341
                      0.002012
                      0.011117
                      0.058922
                      0.324822
                      0.838103
                      0.995144
                      0.999999
                      1.000000
                      1.000000
                      1.000000
                      1.000000
                      1.000000
                      1.000000
                      1.000000
                      1.000000
        </DataArray>
        <DataArray type="Float32" Name="p" format="ascii">
                 100001.041293
                 100003.123920
                 100005.206635
                 100007.289458
                 100009.372413
                 100011.455532
                 100013.538980
                 100060.283533
                 101024.791425
                 103406.629741
                 106879.388466
                 110629.141575
                 114440.906124
                 118264.681383
                 122090.454839
                 125916.541833
                 129742.681969
                 133568.837878
                 137395.003973
                 141221.178104
                 140682.789659
                 135779.844949
                 130876.931624
                 125974.160877
                 121072.214593
                 116175.045767
                 111304.115085
                 106571.624042
                 102602.322553
                 100518.230990
                 100035.246584
                 100022.729473
                 100020.054589
                 100017.380132
                 100014.705765
                 100012.031522
                 100009.357440
                 100006.683602
                 100004.010037
                 100001.336659
        </DataArray>
        <DataArray type="Float32" Name="rho_l" format="ascii">
                    889.795118
                    889.796128
                    889.796592
                    889.796893
                    889.797789
                    889.800325
                    889.801499
                    889.793045
                    889.793642
                    889.795194
                    889.797544
                    889.800156
                    889.802800
                    889.805434
                    889.808077
                    889.810728
                    889.813329
                    889.815844
                    889.818092
                    889.819935
                    889.819343
                    889.816163
                    889.812945
                    889.809757
                    889.806559
                    889.803352
                    889.800146
                    889.797056
                    889.794583
                    889.793369
                    889.793465
                    889.847923
                    889.854346
                    889.868417
                    889.873247
                    889.872816
                    889.861034
                    889.828232
                    889.801337
                    889.793761
        </DataArray>
        <DataArray type="Float32" Name="rho_g" format="ascii">
                      0.484591
                      0.484603
                      0.484613
                      0.484624
                      0.484635
                      0.484648
                      0.484659
                      0.484851
                      0.489266
                      0.501320
                      0.518391
                      0.536680
                      0.555449
                      0.574256
                      0.593047
                      0.611835
                      0.630621
                      0.649408
                      0.668194
                      0.686979
                      0.684336
                      0.660262
                      0.636189
                      0.612119
                      0.588059
                      0.564060
                      0.540362
                      0.516822
                      0.496629
                      0.487024
                      0.484866
                      0.484753
                      0.484746
                      0.484748
                      0.484740
                      0.484726
                      0.484701
                      0.484653
                      0.484612
                      0.484591
        </DataArray>
        <DataArray type="Float32" Name="T_l" format="ascii">
                    449.998047
                    449.997103
                    449.996671
                    449.996390
                    449.995553
                    449.993181
                    449.992084
                    450.000023
                    450.000059
                    450.000077
                    450.000023
                    449.999894
                    449.999773
                    449.999669
                    449.999558
                    449.999440
                    449.999368
                    449.999377
                    449.999635
                    450.000272
                    450.000492
                    450.000441
                    450.000426
                    450.000382
                    450.000349
                    450.000326
                    450.000318
                    450.000289
                    450.000153
                    450.000002
                    449.999615
                    449.948654
                    449.942642
                    449.929475
                    449.924954
                    449.925356
                    449.936378
                    449.967068
                    449.992230
                    449.999317
        </DataArray>
        <DataArray type="Float32" Name="T_g" format="ascii">
                    449.998047
                    449.997103
                    449.996671
                    449.996390
                    449.995553
                    449.993181
                    449.992106
                    450.026044
                    450.313286
                    449.991707
                    449.975277
                    450.075711
                    450.030952
                    450.005898
                    450.000620
                    449.999602
                    449.999391
                    449.999381
                    449.999637
                    450.000273
                    450.000494
                    450.000395
                    450.000162
                    449.998819
                    449.992069
                    449.956586
                    449.778870
                    450.023961
                    450.645812
                    450.094499
                    449.902327
                    449.947938
                    449.942643
                    449.929475
                    449.924954
                    449.925356
                    449.936378
                    449.967068
                    449.992230
                    449.999317
        </DataArray>
      </CellData>
      <PointData>
        <DataArray type="Int32" Name="node_id" format="ascii">
          0
          1
          2
          3
          4
          5
          6
          7
          8
          9
          10
          11
          12
          13
          14
          15
          16
          17
          18
          19
          20
          21
          22
          23
          24
          25
          26
          27
          28
          29
          30
          31
          32
          33
          34
          35
          36
          37
          38
          39
          40
        </DataArray>
        <DataArray type="Float32" Name="v_l" format="ascii">
                      0.536967
                      0.543199
                      0.562266
                      0.599747
                      0.654486
                      0.662430
                      1.836313
                      1.860544
                      0.874741
                      0.589134
                      0.521149
                      0.509853
                      0.507430
                      0.506960
                      0.506881
                      0.506868
                      0.506865
                      0.506864
                      0.506863
                      0.506861
                      0.506861
                      0.506860
                      0.506861
                      0.506860
                      0.506849
                      0.506775
                      0.506342
                      0.503930
                      0.489631
                      0.369651
                     -0.137735
                     -2.538108
                     -1.945136
                      0.345297
                      0.425553
                      0.431246
                      0.465990
                      0.486795
                      0.495639
                      0.502187
                      0.504846
        </DataArray>
        <DataArray type="Float32" Name="v_g" format="ascii">
                      0.508960
                      0.508952
                      0.508940
                      0.508928
                      0.508913
                      0.508898
                      0.508880
                      0.508860
                      0.494589
                      0.384951
                      0.351524
                      0.346801
                      0.345737
                      0.345528
                      0.345493
                      0.345489
                      0.345489
                      0.435019
                      0.474339
                      0.478358
                      0.525513
                      0.650050
                      0.689537
                      0.689541
                      0.689548
                      0.689567
                      0.689634
                      0.689925
                      0.693011
                      0.654024
                      0.546215
                      0.510022
                      0.508843
                      0.508850
                      0.508858
                      0.508867
                      0.508875
                      0.508884
                      0.508894
                      0.508904
                      0.508912
        </DataArray>
      </PointData>
    </Piece>
  </UnstructuredGrid>
</VTKFile>
