<VTKFile type="UnstructuredGrid" version="0.1" byte_order="LittleEndian">
  <UnstructuredGrid>
    <Piece NumberOfPoints="201" NumberOfCells="200">
      <Points>
        <DataArray type = "Float32" NumberOfComponents="3" format="ascii">
          0.000000 0 0
          0.100000 0 0
          0.200000 0 0
          0.300000 0 0
          0.400000 0 0
          0.500000 0 0
          0.600000 0 0
          0.700000 0 0
          0.800000 0 0
          0.900000 0 0
          1.000000 0 0
          1.100000 0 0
          1.200000 0 0
          1.300000 0 0
          1.400000 0 0
          1.500000 0 0
          1.600000 0 0
          1.700000 0 0
          1.800000 0 0
          1.900000 0 0
          2.000000 0 0
          2.100000 0 0
          2.200000 0 0
          2.300000 0 0
          2.400000 0 0
          2.500000 0 0
          2.600000 0 0
          2.700000 0 0
          2.800000 0 0
          2.900000 0 0
          3.000000 0 0
          3.100000 0 0
          3.200000 0 0
          3.300000 0 0
          3.400000 0 0
          3.500000 0 0
          3.600000 0 0
          3.700000 0 0
          3.800000 0 0
          3.900000 0 0
          4.000000 0 0
          4.100000 0 0
          4.200000 0 0
          4.300000 0 0
          4.400000 0 0
          4.500000 0 0
          4.600000 0 0
          4.700000 0 0
          4.800000 0 0
          4.900000 0 0
          5.000000 0 0
          5.100000 0 0
          5.200000 0 0
          5.300000 0 0
          5.400000 0 0
          5.500000 0 0
          5.600000 0 0
          5.700000 0 0
          5.800000 0 0
          5.900000 0 0
          6.000000 0 0
          6.100000 0 0
          6.200000 0 0
          6.300000 0 0
          6.400000 0 0
          6.500000 0 0
          6.600000 0 0
          6.700000 0 0
          6.800000 0 0
          6.900000 0 0
          7.000000 0 0
          7.100000 0 0
          7.200000 0 0
          7.300000 0 0
          7.400000 0 0
          7.500000 0 0
          7.600000 0 0
          7.700000 0 0
          7.800000 0 0
          7.900000 0 0
          8.000000 0 0
          8.100000 0 0
          8.200000 0 0
          8.300000 0 0
          8.400000 0 0
          8.500000 0 0
          8.600000 0 0
          8.700000 0 0
          8.800000 0 0
          8.900000 0 0
          9.000000 0 0
          9.100000 0 0
          9.200000 0 0
          9.300000 0 0
          9.400000 0 0
          9.500000 0 0
          9.600000 0 0
          9.700000 0 0
          9.800000 0 0
          9.900000 0 0
          10.000000 0 0
          10.100000 0 0
          10.200000 0 0
          10.300000 0 0
          10.400000 0 0
          10.500000 0 0
          10.600000 0 0
          10.700000 0 0
          10.800000 0 0
          10.900000 0 0
          11.000000 0 0
          11.100000 0 0
          11.200000 0 0
          11.300000 0 0
          11.400000 0 0
          11.500000 0 0
          11.600000 0 0
          11.700000 0 0
          11.800000 0 0
          11.900000 0 0
          12.000000 0 0
          12.100000 0 0
          12.200000 0 0
          12.300000 0 0
          12.400000 0 0
          12.500000 0 0
          12.600000 0 0
          12.700000 0 0
          12.800000 0 0
          12.900000 0 0
          13.000000 0 0
          13.100000 0 0
          13.200000 0 0
          13.300000 0 0
          13.400000 0 0
          13.500000 0 0
          13.600000 0 0
          13.700000 0 0
          13.800000 0 0
          13.900000 0 0
          14.000000 0 0
          14.100000 0 0
          14.200000 0 0
          14.300000 0 0
          14.400000 0 0
          14.500000 0 0
          14.600000 0 0
          14.700000 0 0
          14.800000 0 0
          14.900000 0 0
          15.000000 0 0
          15.100000 0 0
          15.200000 0 0
          15.300000 0 0
          15.400000 0 0
          15.500000 0 0
          15.600000 0 0
          15.700000 0 0
          15.800000 0 0
          15.900000 0 0
          16.000000 0 0
          16.100000 0 0
          16.200000 0 0
          16.300000 0 0
          16.400000 0 0
          16.500000 0 0
          16.600000 0 0
          16.700000 0 0
          16.800000 0 0
          16.900000 0 0
          17.000000 0 0
          17.100000 0 0
          17.200000 0 0
          17.300000 0 0
          17.400000 0 0
          17.500000 0 0
          17.600000 0 0
          17.700000 0 0
          17.800000 0 0
          17.900000 0 0
          18.000000 0 0
          18.100000 0 0
          18.200000 0 0
          18.300000 0 0
          18.400000 0 0
          18.500000 0 0
          18.600000 0 0
          18.700000 0 0
          18.800000 0 0
          18.900000 0 0
          19.000000 0 0
          19.100000 0 0
          19.200000 0 0
          19.300000 0 0
          19.400000 0 0
          19.500000 0 0
          19.600000 0 0
          19.700000 0 0
          19.800000 0 0
          19.900000 0 0
          20.000000 0 0
        </DataArray>
      </Points>
      <Cells>
        <DataArray type = "Int32" Name="connectivity" format="ascii">
          0 1
          1 2
          2 3
          3 4
          4 5
          5 6
          6 7
          7 8
          8 9
          9 10
          10 11
          11 12
          12 13
          13 14
          14 15
          15 16
          16 17
          17 18
          18 19
          19 20
          20 21
          21 22
          22 23
          23 24
          24 25
          25 26
          26 27
          27 28
          28 29
          29 30
          30 31
          31 32
          32 33
          33 34
          34 35
          35 36
          36 37
          37 38
          38 39
          39 40
          40 41
          41 42
          42 43
          43 44
          44 45
          45 46
          46 47
          47 48
          48 49
          49 50
          50 51
          51 52
          52 53
          53 54
          54 55
          55 56
          56 57
          57 58
          58 59
          59 60
          60 61
          61 62
          62 63
          63 64
          64 65
          65 66
          66 67
          67 68
          68 69
          69 70
          70 71
          71 72
          72 73
          73 74
          74 75
          75 76
          76 77
          77 78
          78 79
          79 80
          80 81
          81 82
          82 83
          83 84
          84 85
          85 86
          86 87
          87 88
          88 89
          89 90
          90 91
          91 92
          92 93
          93 94
          94 95
          95 96
          96 97
          97 98
          98 99
          99 100
          100 101
          101 102
          102 103
          103 104
          104 105
          105 106
          106 107
          107 108
          108 109
          109 110
          110 111
          111 112
          112 113
          113 114
          114 115
          115 116
          116 117
          117 118
          118 119
          119 120
          120 121
          121 122
          122 123
          123 124
          124 125
          125 126
          126 127
          127 128
          128 129
          129 130
          130 131
          131 132
          132 133
          133 134
          134 135
          135 136
          136 137
          137 138
          138 139
          139 140
          140 141
          141 142
          142 143
          143 144
          144 145
          145 146
          146 147
          147 148
          148 149
          149 150
          150 151
          151 152
          152 153
          153 154
          154 155
          155 156
          156 157
          157 158
          158 159
          159 160
          160 161
          161 162
          162 163
          163 164
          164 165
          165 166
          166 167
          167 168
          168 169
          169 170
          170 171
          171 172
          172 173
          173 174
          174 175
          175 176
          176 177
          177 178
          178 179
          179 180
          180 181
          181 182
          182 183
          183 184
          184 185
          185 186
          186 187
          187 188
          188 189
          189 190
          190 191
          191 192
          192 193
          193 194
          194 195
          195 196
          196 197
          197 198
          198 199
          199 200
        </DataArray>
        <DataArray type = "Int32" Name="offsets" format="ascii">
          2
          4
          6
          8
          10
          12
          14
          16
          18
          20
          22
          24
          26
          28
          30
          32
          34
          36
          38
          40
          42
          44
          46
          48
          50
          52
          54
          56
          58
          60
          62
          64
          66
          68
          70
          72
          74
          76
          78
          80
          82
          84
          86
          88
          90
          92
          94
          96
          98
          100
          102
          104
          106
          108
          110
          112
          114
          116
          118
          120
          122
          124
          126
          128
          130
          132
          134
          136
          138
          140
          142
          144
          146
          148
          150
          152
          154
          156
          158
          160
          162
          164
          166
          168
          170
          172
          174
          176
          178
          180
          182
          184
          186
          188
          190
          192
          194
          196
          198
          200
          202
          204
          206
          208
          210
          212
          214
          216
          218
          220
          222
          224
          226
          228
          230
          232
          234
          236
          238
          240
          242
          244
          246
          248
          250
          252
          254
          256
          258
          260
          262
          264
          266
          268
          270
          272
          274
          276
          278
          280
          282
          284
          286
          288
          290
          292
          294
          296
          298
          300
          302
          304
          306
          308
          310
          312
          314
          316
          318
          320
          322
          324
          326
          328
          330
          332
          334
          336
          338
          340
          342
          344
          346
          348
          350
          352
          354
          356
          358
          360
          362
          364
          366
          368
          370
          372
          374
          376
          378
          380
          382
          384
          386
          388
          390
          392
          394
          396
          398
          400
        </DataArray>
        <DataArray type = "UInt8" Name="types" format="ascii">
          3
          3
          3
          3
          3
          3
          3
          3
          3
          3
          3
          3
          3
          3
          3
          3
          3
          3
          3
          3
          3
          3
          3
          3
          3
          3
          3
          3
          3
          3
          3
          3
          3
          3
          3
          3
          3
          3
          3
          3
          3
          3
          3
          3
          3
          3
          3
          3
          3
          3
          3
          3
          3
          3
          3
          3
          3
          3
          3
          3
          3
          3
          3
          3
          3
          3
          3
          3
          3
          3
          3
          3
          3
          3
          3
          3
          3
          3
          3
          3
          3
          3
          3
          3
          3
          3
          3
          3
          3
          3
          3
          3
          3
          3
          3
          3
          3
          3
          3
          3
          3
          3
          3
          3
          3
          3
          3
          3
          3
          3
          3
          3
          3
          3
          3
          3
          3
          3
          3
          3
          3
          3
          3
          3
          3
          3
          3
          3
          3
          3
          3
          3
          3
          3
          3
          3
          3
          3
          3
          3
          3
          3
          3
          3
          3
          3
          3
          3
          3
          3
          3
          3
          3
          3
          3
          3
          3
          3
          3
          3
          3
          3
          3
          3
          3
          3
          3
          3
          3
          3
          3
          3
          3
          3
          3
          3
          3
          3
          3
          3
          3
          3
          3
          3
          3
          3
          3
          3
          3
          3
          3
          3
          3
          3
          3
          3
          3
          3
          3
          3
        </DataArray>
      </Cells>
      <CellData>
        <DataArray type="Float32" Name="alpha" format="ascii">
                      1.000000
                      1.000000
                      1.000000
                      1.000000
                      1.000000
                      1.000000
                      1.000000
                      1.000000
                      1.000000
                      1.000000
                      1.000000
                      1.000000
                      1.000000
                      1.000000
                      1.000000
                      1.000000
                      1.000000
                      1.000000
                      1.000000
                      1.000000
                      1.000000
                      1.000000
                      1.000000
                      1.000000
                      1.000000
                      1.000000
                      1.000000
                      1.000000
                      1.000000
                      1.000000
                      1.000000
                      1.000000
                      1.000000
                      1.000000
                      1.000000
                      1.000000
                      1.000000
                      1.000000
                      1.000000
                      1.000000
                      1.000000
                      1.000000
                      1.000000
                      1.000000
                      0.999999
                      0.999987
                      0.993362
                      0.747280
                      0.252112
                      0.036084
                      0.000000
                     -0.000000
                      0.000000
                      0.000000
                      0.000000
                     -0.000000
                     -0.000000
                     -0.000000
                     -0.000000
                      0.000000
                      0.000000
                      0.000000
                      0.000000
                     -0.000000
                     -0.000000
                     -0.000000
                     -0.000000
                     -0.000000
                      0.000000
                      0.000000
                      0.000000
                      0.000000
                      0.000000
                      0.000000
                      0.000000
                      0.000000
                      0.000000
                     -0.000000
                      0.000000
                      0.000000
                      0.000000
                     -0.000000
                     -0.000000
                     -0.000000
                     -0.000000
                     -0.000000
                      0.000000
                      0.000000
                      0.000000
                      0.000000
                      0.000000
                      0.000000
                     -0.000000
                     -0.000000
                      0.000000
                      0.000000
                      0.000000
                     -0.000000
                      0.000000
                      0.000000
                      0.000000
                      0.000000
                      0.000000
                      0.000000
                      0.000000
                      0.000000
                      0.000000
                     -0.000000
                      0.000000
                      0.000000
                     -0.000000
                     -0.000000
                      0.000000
                      0.000000
                      0.000000
                      0.000000
                      0.000000
                     -0.000000
                     -0.000000
                     -0.000000
                     -0.000000
                      0.000000
                      0.000000
                      0.000000
                      0.000000
                      0.000000
                      0.000000
                      0.000000
                      0.000000
                      0.000000
                      0.000000
                      0.000000
                      0.000000
                      0.000000
                      0.000000
                      0.000000
                      0.000000
                      0.000000
                      0.000000
                      0.000000
                      0.000000
                      0.000001
                      0.000007
                      0.000071
                      0.000635
                      0.005090
                      0.035964
                      0.233362
                      0.727758
                      0.968533
                      1.000000
                      1.000000
                      1.000000
                      1.000000
                      1.000000
                      1.000000
                      1.000000
                      1.000000
                      1.000000
                      1.000000
                      1.000000
                      1.000000
                      1.000000
                      1.000000
                      1.000000
                      1.000000
                      1.000000
                      1.000000
                      1.000000
                      1.000000
                      1.000000
                      1.000000
                      1.000000
                      1.000000
                      1.000000
                      1.000000
                      1.000000
                      1.000000
                      1.000000
                      1.000000
                      1.000000
                      1.000000
                      1.000000
                      1.000000
                      1.000000
                      1.000000
                      1.000000
                      1.000000
                      1.000000
                      1.000000
                      1.000000
                      1.000000
                      1.000000
                      1.000000
                      1.000000
                      1.000000
                      1.000000
                      1.000000
                      1.000000
                      1.000000
        </DataArray>
        <DataArray type="Float32" Name="p" format="ascii">
                 100000.578638
                 100001.157194
                 100001.735583
                 100002.313712
                 100002.891489
                 100003.468822
                 100004.045621
                 100004.621792
                 100005.197248
                 100005.771897
                 100006.345650
                 100006.918419
                 100007.490116
                 100008.060654
                 100008.629947
                 100009.197911
                 100009.764462
                 100010.329516
                 100010.892992
                 100011.454811
                 100012.014894
                 100012.573162
                 100013.129541
                 100013.683956
                 100014.236335
                 100014.786607
                 100015.334702
                 100015.880554
                 100016.424097
                 100016.965268
                 100017.504005
                 100018.040251
                 100018.573947
                 100019.105040
                 100019.633476
                 100020.159207
                 100020.682184
                 100021.202363
                 100021.719701
                 100022.234159
                 100022.745699
                 100023.254287
                 100023.759893
                 100024.262492
                 100024.762167
                 100025.258189
                 100027.123926
                 100256.517523
                 100771.747431
                 101582.940314
                 102507.187393
                 103448.406280
                 104389.625001
                 105330.843558
                 106272.061954
                 107213.280191
                 108154.498271
                 109095.716196
                 110036.933969
                 110978.151591
                 111919.369066
                 112860.586395
                 113801.803580
                 114743.020624
                 115684.237529
                 116625.454297
                 117566.670931
                 118507.887433
                 119449.103804
                 120390.320048
                 121331.536166
                 122272.752162
                 123213.968036
                 124155.183791
                 125096.399431
                 126037.614956
                 126978.830369
                 127920.045673
                 128861.260869
                 129802.475960
                 130743.690949
                 131684.905837
                 132626.120626
                 133567.335320
                 134508.549920
                 135449.764429
                 136390.978849
                 137332.193182
                 138273.407430
                 139214.621596
                 140155.835683
                 141097.049691
                 142038.263625
                 142979.477485
                 143920.691274
                 144861.904996
                 145803.118650
                 146744.332235
                 147685.545858
                 148626.759246
                 148586.968716
                 147566.174249
                 146545.379719
                 145524.585148
                 144503.790536
                 143482.995887
                 142462.201203
                 141441.406485
                 140420.611737
                 139399.816961
                 138379.022158
                 137358.227332
                 136337.432484
                 135316.637618
                 134295.842734
                 133275.047836
                 132254.252926
                 131233.458006
                 130212.663079
                 129191.868146
                 128171.073211
                 127150.278275
                 126129.483341
                 125108.688411
                 124087.893488
                 123067.098573
                 122046.303669
                 121025.508779
                 120004.713905
                 118983.919049
                 117963.124213
                 116942.329400
                 115921.534612
                 114900.739852
                 113879.945121
                 112859.150423
                 111838.355759
                 110817.561132
                 109796.766545
                 108775.972000
                 107755.177491
                 106734.382978
                 105713.591081
                 104692.831004
                 103672.357353
                 102654.191807
                 101652.012323
                 100752.669079
                 100175.823335
                 100031.623649
                 100028.891420
                 100028.372203
                 100027.849975
                 100027.324748
                 100026.796536
                 100026.265353
                 100025.731220
                 100025.194156
                 100024.654187
                 100024.111339
                 100023.565640
                 100023.017122
                 100022.465820
                 100021.911770
                 100021.355011
                 100020.795585
                 100020.233536
                 100019.668909
                 100019.101753
                 100018.532120
                 100017.960062
                 100017.385633
                 100016.808892
                 100016.229898
                 100015.648712
                 100015.065398
                 100014.480019
                 100013.892645
                 100013.303342
                 100012.712183
                 100012.119238
                 100011.524583
                 100010.928291
                 100010.330440
                 100009.731108
                 100009.130375
                 100008.528321
                 100007.925028
                 100007.320579
                 100006.715058
                 100006.108550
                 100005.501142
                 100004.892919
                 100004.283969
                 100003.674381
                 100003.064243
                 100002.453644
                 100001.842673
                 100001.231422
                 100000.619978
        </DataArray>
        <DataArray type="Float32" Name="rho_l" format="ascii">
                   1000.000000
                   1000.000000
                   1000.000000
                   1000.000000
                   1000.000000
                   1000.000000
                   1000.000000
                   1000.000000
                   1000.000001
                   1000.000001
                   1000.000001
                   1000.000001
                   1000.000001
                   1000.000001
                   1000.000001
                   1000.000001
                   1000.000001
                   1000.000001
                   1000.000001
                   1000.000001
                   1000.000001
                   1000.000001
                   1000.000001
                   1000.000001
                   1000.000001
                   1000.000001
                   1000.000002
                   1000.000002
                   1000.000002
                   1000.000002
                   1000.000002
                   1000.000002
                   1000.000002
                   1000.000002
                   1000.000002
                   1000.000002
                   1000.000002
                   1000.000002
                   1000.000002
                   1000.000002
                   1000.000002
                   1000.000002
                   1000.000002
                   1000.000002
                   1000.000002
                   1000.000003
                   1000.000003
                   1000.000026
                   1000.000077
                   1000.000158
                   1000.000251
                   1000.000345
                   1000.000439
                   1000.000533
                   1000.000627
                   1000.000721
                   1000.000815
                   1000.000910
                   1000.001004
                   1000.001098
                   1000.001192
                   1000.001286
                   1000.001380
                   1000.001474
                   1000.001568
                   1000.001663
                   1000.001757
                   1000.001851
                   1000.001945
                   1000.002039
                   1000.002133
                   1000.002227
                   1000.002321
                   1000.002416
                   1000.002510
                   1000.002604
                   1000.002698
                   1000.002792
                   1000.002886
                   1000.002980
                   1000.003074
                   1000.003168
                   1000.003263
                   1000.003357
                   1000.003451
                   1000.003545
                   1000.003639
                   1000.003733
                   1000.003827
                   1000.003921
                   1000.004016
                   1000.004110
                   1000.004204
                   1000.004298
                   1000.004392
                   1000.004486
                   1000.004580
                   1000.004674
                   1000.004769
                   1000.004863
                   1000.004859
                   1000.004757
                   1000.004655
                   1000.004552
                   1000.004450
                   1000.004348
                   1000.004246
                   1000.004144
                   1000.004042
                   1000.003940
                   1000.003838
                   1000.003736
                   1000.003634
                   1000.003532