<VTKFile type="UnstructuredGrid" version="0.1" byte_order="LittleEndian">
  <UnstructuredGrid>
    <Piece NumberOfPoints="41" NumberOfCells="40">
      <Points>
        <DataArray type = "Float32" NumberOfComponents="3" format="ascii">
          0.000000 0 0
          0.500000 0 0
          1.000000 0 0
          1.500000 0 0
          2.000000 0 0
          2.500000 0 0
          3.000000 0 0
          3.500000 0 0
          4.000000 0 0
          4.500000 0 0
          5.000000 0 0
          5.500000 0 0
          6.000000 0 0
          6.500000 0 0
          7.000000 0 0
          7.500000 0 0
          8.000000 0 0
          8.500000 0 0
          9.000000 0 0
          9.500000 0 0
          10.000000 0 0
          10.500000 0 0
          11.000000 0 0
          11.500000 0 0
          12.000000 0 0
          12.500000 0 0
          13.000000 0 0
          13.500000 0 0
          14.000000 0 0
          14.500000 0 0
          15.000000 0 0
          15.500000 0 0
          16.000000 0 0
          16.500000 0 0
          17.000000 0 0
          17.500000 0 0
          18.000000 0 0
          18.500000 0 0
          19.000000 0 0
          19.500000 0 0
          20.000000 0 0
        </DataArray>
      </Points>
      <Cells>
        <DataArray type = "Int32" Name="connectivity" format="ascii">
          0 1
          1 2
          2 3
          3 4
          4 5
          5 6
          6 7
          7 8
          8 9
          9 10
          10 11
          11 12
          12 13
          13 14
          14 15
          15 16
          16 17
          17 18
          18 19
          19 20
          20 21
          21 22
          22 23
          23 24
          24 25
          25 26
          26 27
          27 28
          28 29
          29 30
          30 31
          31 32
          32 33
          33 34
          34 35
          35 36
          36 37
          37 38
          38 39
          39 40
        </DataArray>
        <DataArray type = "Int32" Name="offsets" format="ascii">
          2
          4
          6
          8
          10
          12
          14
          16
          18
          20
          22
          24
          26
          28
          30
          32
          34
          36
          38
          40
          42
          44
          46
          48
          50
          52
          54
          56
          58
          60
          62
          64
          66
          68
          70
          72
          74
          76
          78
          80
        </DataArray>
        <DataArray type = "UInt8" Name="types" format="ascii">
          3
          3
          3
          3
          3
          3
          3
          3
          3
          3
          3
          3
          3
          3
          3
          3
          3
          3
          3
          3
          3
          3
          3
          3
          3
          3
          3
          3
          3
          3
          3
          3
          3
          3
          3
          3
          3
          3
          3
          3
        </DataArray>
      </Cells>
      <CellData>
        <DataArray type="Float32" Name="alpha" format="ascii">
                      1.000000
                      1.000000
                      1.000000
                      1.000000
                      1.000000
                      1.000000
                      1.000000
                      0.982427
                      0.534287
                      0.092720
                      0.000000
                      0.000000
                      0.000000
                      0.000000
                      0.000000
                      0.000000
                      0.000000
                      0.000000
                      0.000000
                      0.000000
                      0.000000
                      0.000000
                      0.000000
                      0.000003
                      0.000037
                      0.000469
                      0.005178
                      0.049672
                      0.422448
                      0.912755
                      1.000000
                      1.000000
                      1.000000
                      1.000000
                      1.000000
                      1.000000
                      1.000000
                      1.000000
                      1.000000
                      1.000000
        </DataArray>
        <DataArray type="Float32" Name="p" format="ascii">
                 100001.021187
                 100003.063432
                 100005.105265
                 100007.146404
                 100009.186605
                 100011.225665
                 100013.263354
                 100042.365368
                 100947.849149
                 103531.245846
                 107118.175756
                 110879.394431
                 114640.634531
                 118401.897523
                 122163.184979
                 125924.498508
                 129685.839743
                 133447.210197
                 137208.611071
                 140970.042558
                 140366.935149
                 135399.295953
                 130431.699495
                 125464.151920
                 120496.727914
                 115530.355193
                 110575.235060
                 105728.256913
                 101926.053238
                 100204.383632
                 100025.738936
                 100023.029393
                 100020.319863
                 100017.610350
                 100014.900854
                 100012.191379
                 100009.481937
                 100006.772556
                 100004.063334
                 100001.354392
        </DataArray>
        <DataArray type="Float32" Name="rho_l" format="ascii">
                    889.796749
                    889.797438
                    889.797837
                    889.798146
                    889.798161
                    889.795871
                    889.776806
                    889.793094
                    889.793734
                    889.795408
                    889.797858
                    889.800472
                    889.803039
                    889.805609
                    889.808181
                    889.810765
                    889.813354
                    889.815887
                    889.818240
                    889.819809
                    889.819117
                    889.815718
                    889.812554
                    889.809367
                    889.806181
                    889.802977
                    889.799748
                    889.796583
                    889.794266
                    889.793627
                    889.850853
                    889.856687
                    889.862531
                    889.868527
                    889.875003
                    889.880955
                    889.883661
                    889.881143
                    889.850528
                    889.806517
        </DataArray>
        <DataArray type="Float32" Name="rho_g" format="ascii">
                      0.484593
                      0.484604
                      0.484614
                      0.484624
                      0.484635
                      0.484642
                      0.484633
                      0.484605
                      0.488270
                      0.500924
                      0.519534
                      0.538002
                      0.556470
                      0.574938
                      0.593406
                      0.611874
                      0.630342
                      0.648811
                      0.667279
                      0.685746
                      0.682785
                      0.658394
                      0.634003
                      0.609612
                      0.585222
                      0.560840
                      0.536465
                      0.511042
                      0.492216
                      0.485465
                      0.484770
                      0.484763
                      0.484756
                      0.484749
                      0.484742
                      0.484735
                      0.484725
                      0.484709
                      0.484664
                      0.484605
        </DataArray>
        <DataArray type="Float32" Name="T_l" format="ascii">
                    449.996521
                    449.995878
                    449.995505
                    449.995218
                    449.995205
                    449.997348
                    450.015115
                    449.999966
                    449.999926
                    449.999955
                    449.999876
                    449.999753
                    449.999673
                    449.999590
                    449.999505
                    449.999410
                    449.999310
                    449.999262
                    449.999382
                    450.000235
                    450.000509
                    450.000622
                    450.000516
                    450.000432
                    450.000347
                    450.000279
                    450.000241
                    450.000211
                    450.000032
                    449.999568
                    449.945914
                    449.940454
                    449.934984
                    449.929372
                    449.923312
                    449.917741
                    449.915208
                    449.917562
                    449.946204
                    449.987381
        </DataArray>
        <DataArray type="Float32" Name="T_g" format="ascii">
                    449.996521
                    449.995878
                    449.995505
                    449.995218
                    449.995205
                    449.997349
                    450.015123
                    450.169542
                    450.868023
                    450.871640
                    449.999876
                    449.999753
                    449.999673
                    449.999590
                    449.999505
                    449.999410
                    449.999310
                    449.999262
                    449.999382
                    450.000235
                    450.000509
                    450.000623
                    450.000518
                    450.000443
                    450.000441
                    449.998124
                    450.035660
                    451.426090
                    451.623025
                    450.110884
                    449.945914
                    449.940454
                    449.934984
                    449.929372
                    449.923312
                    449.917741
                    449.915208
                    449.917562
                    449.946204
                    449.987381
        </DataArray>
      </CellData>
      <PointData>
        <DataArray type="Int32" Name="node_id" format="ascii">
          0
          1
          2
          3
          4
          5
          6
          7
          8
          9
          10
          11
          12
          13
          14
          15
          16
          17
          18
          19
          20
          21
          22
          23
          24
          25
          26
          27
          28
          29
          30
          31
          32
          33
          34
          35
          36
          37
          38
          39
          40
        </DataArray>
        <DataArray type="Float32" Name="v_l" format="ascii">
                     -0.155865
                     -0.149583
                     -0.123575
                     -0.063158
                      0.028485
                      0.080446
                      0.310193
                      1.329445
                      0.098189
                     -0.140186
                     -0.168458
                     -0.168458
                     -0.168458
                     -0.168458
                     -0.168458
                     -0.168458
                     -0.168458
                     -0.168458
                     -0.168458
                     -0.168457
                     -0.168458
                     -0.168458
                     -0.168459
                     -0.168460
                     -0.168463
                     -0.168501
                     -0.168912
                     -0.172919
                     -0.213503
                     -0.448777
                     -0.956389
                     -0.167554
                     -0.167622
                     -0.167626
                     -0.173586
                     -0.168175
                     -0.167584
                     -0.167590
                     -0.167597
                     -0.167585
                     -0.167547
        </DataArray>
        <DataArray type="Float32" Name="v_g" format="ascii">
                     -0.169172
                     -0.169171
                     -0.169170
                     -0.169171
                     -0.169173
                     -0.169176
                     -0.169181
                     -0.170613
                     -0.226181
                     -0.333312
                     -0.332311
                     -0.168131
                     -0.168578
                     -0.168505
                     -0.168531
                     -0.168474
                     -0.168494
                     -0.168562
                     -0.168756
                     -0.169599
                     -0.166760
                     -0.151291
                     -0.113150
                      0.015419
                      0.015419
                      0.015408
                      0.015264
                      0.013844
                     -0.002943
                     -0.123430
                     -0.167550
                     -0.167554
                     -0.167558
                     -0.167562
                     -0.167566
                     -0.167570
                     -0.167573
                     -0.167577
                     -0.167581
                     -0.167585
                     -0.167588
        </DataArray>
      </PointData>
    </Piece>
  </UnstructuredGrid>
</VTKFile>
