<VTKFile type="UnstructuredGrid" version="0.1" byte_order="LittleEndian">
  <UnstructuredGrid>
    <Piece NumberOfPoints="41" NumberOfCells="40">
      <Points>
        <DataArray type = "Float32" NumberOfComponents="3" format="ascii">
          0.000000 0 0
          0.500000 0 0
          1.000000 0 0
          1.500000 0 0
          2.000000 0 0
          2.500000 0 0
          3.000000 0 0
          3.500000 0 0
          4.000000 0 0
          4.500000 0 0
          5.000000 0 0
          5.500000 0 0
          6.000000 0 0
          6.500000 0 0
          7.000000 0 0
          7.500000 0 0
          8.000000 0 0
          8.500000 0 0
          9.000000 0 0
          9.500000 0 0
          10.000000 0 0
          10.500000 0 0
          11.000000 0 0
          11.500000 0 0
          12.000000 0 0
          12.500000 0 0
          13.000000 0 0
          13.500000 0 0
          14.000000 0 0
          14.500000 0 0
          15.000000 0 0
          15.500000 0 0
          16.000000 0 0
          16.500000 0 0
          17.000000 0 0
          17.500000 0 0
          18.000000 0 0
          18.500000 0 0
          19.000000 0 0
          19.500000 0 0
          20.000000 0 0
        </DataArray>
      </Points>
      <Cells>
        <DataArray type = "Int32" Name="connectivity" format="ascii">
          0 1
          1 2
          2 3
          3 4
          4 5
          5 6
          6 7
          7 8
          8 9
          9 10
          10 11
          11 12
          12 13
          13 14
          14 15
          15 16
          16 17
          17 18
          18 19
          19 20
          20 21
          21 22
          22 23
          23 24
          24 25
          25 26
          26 27
          27 28
          28 29
          29 30
          30 31
          31 32
          32 33
          33 34
          34 35
          35 36
          36 37
          37 38
          38 39
          39 40
        </DataArray>
        <DataArray type = "Int32" Name="offsets" format="ascii">
          2
          4
          6
          8
          10
          12
          14
          16
          18
          20
          22
          24
          26
          28
          30
          32
          34
          36
          38
          40
          42
          44
          46
          48
          50
          52
          54
          56
          58
          60
          62
          64
          66
          68
          70
          72
          74
          76
          78
          80
        </DataArray>
        <DataArray type = "UInt8" Name="types" format="ascii">
          3
          3
          3
          3
          3
          3
          3
          3
          3
          3
          3
          3
          3
          3
          3
          3
          3
          3
          3
          3
          3
          3
          3
          3
          3
          3
          3
          3
          3
          3
          3
          3
          3
          3
          3
          3
          3
          3
          3
          3
        </DataArray>
      </Cells>
      <CellData>
        <DataArray type="Float32" Name="alpha" format="ascii">
                      1.000000
                      1.000000
                      1.000000
                      1.000000
                      1.000000
                      1.000000
                      1.000000
                      0.999998
                      0.998902
                      0.965116
                      0.765874
                      0.317042
                      0.066834
                      0.014451
                      0.003116
                      0.000672
                      0.000145
                      0.000031
                      0.000007
                      0.000002
                      0.000001
                      0.000001
                      0.000001
                      0.000006
                      0.000025
                      0.000116
                      0.000537
                      0.002488
                      0.011768
                      0.052574
                      0.205296
                      0.623254
                      0.971746
                      1.000000
                      1.000000
                      1.000000
                      1.000000
                      1.000000
                      1.000000
                      1.000000
        </DataArray>
        <DataArray type="Float32" Name="p" format="ascii">
                 100001.367552
                 100004.102727
                 100006.838037
                 100009.573475
                 100012.309042
                 100015.044735
                 100017.780552
                 100020.516669
                 100024.066856
                 100174.476990
                 100974.086273
                 103496.851495
                 107917.477035
                 113155.336228
                 118563.929013
                 124009.516972
                 129463.087945
                 134918.382862
                 140374.050228
                 145829.799363
                 146380.547285
                 142026.280743
                 137672.016072
                 133317.764200
                 128963.566112
                 124609.610694
                 120256.767552
                 115909.072171
                 111585.739877
                 107370.931666
                 103574.499198
                 101005.738118
                 100090.580571
                 100014.214476
                 100012.028249
                 100009.841068
                 100007.653989
                 100005.467009
                 100003.280131
                 100001.093358
        </DataArray>
        <DataArray type="Float32" Name="rho_l" format="ascii">
                   1000.000000
                   1000.000000
                   1000.000001
                   1000.000001
                   1000.000001
                   1000.000002
                   1000.000002
                   1000.000002
                   1000.000002
                   1000.000017
                   1000.000097
                   1000.000350
                   1000.000792
                   1000.001316
                   1000.001856
                   1000.002401
                   1000.002946
                   1000.003492
                   1000.004037
                   1000.004583
                   1000.004638
                   1000.004203
                   1000.003767
                   1000.003332
                   1000.002896
                   1000.002461
                   1000.002026
                   1000.001591
                   1000.001159
                   1000.000737
                   1000.000357
                   1000.000101
                   1000.000009
                   1000.000001
                   1000.000001
                   1000.000001
                   1000.000001
                   1000.000001
                   1000.000000
                   1000.000000
        </DataArray>
        <DataArray type="Float32" Name="rho_g" format="ascii">
                      0.500014
                      0.500041
                      0.500068
                      0.500096
                      0.500123
                      0.500150
                      0.500178
                      0.500205
                      0.500241
                      0.501745
                      0.509741
                      0.534969
                      0.579175
                      0.631553
                      0.685639
                      0.740095
                      0.794631
                      0.849184
                      0.903741
                      0.958298
                      0.963805
                      0.920263
                      0.876720
                      0.833178
                      0.789636
                      0.746096
                      0.702568
                      0.659091
                      0.615857
                      0.573709
                      0.535745
                      0.510057
                      0.500906
                      0.500142
                      0.500120
                      0.500098
                      0.500077
                      0.500055
                      0.500033
                      0.500011
        </DataArray>
      </CellData>
      <PointData>
        <DataArray type="Int32" Name="node_id" format="ascii">
          0
          1
          2
          3
          4
          5
          6
          7
          8
          9
          10
          11
          12
          13
          14
          15
          16
          17
          18
          19
          20
          21
          22
          23
          24
          25
          26
          27
          28
          29
          30
          31
          32
          33
          34
          35
          36
          37
          38
          39
          40
        </DataArray>
        <DataArray type="Float32" Name="v_l" format="ascii">
                      0.088284
                      0.096481
                      0.110949
                      0.125244
                      0.136212
                      0.138923
                      0.143584
                      1.906003
                      3.525499
                      2.241633
                      1.093232
                      0.781932
                      0.639374
                      0.610749
                      0.605151
                      0.603966
                      0.603710
                      0.603655
                      0.603642
                      0.603640
                      0.603639
                      0.603639
                      0.603639
                      0.603639
                      0.603639
                      0.603635
                      0.603617
                      0.603531
                      0.603125
                      0.601105
                      0.591393
                      0.543118
                      0.308346
                     -0.859311
                      0.041780
                      0.098040
                      0.103354
                      0.103999
                      0.104071
                      0.104079
                      0.104084
        </DataArray>
        <DataArray type="Float32" Name="v_g" format="ascii">
                      0.604171
                      0.604144
                      0.604099
                      0.604059
                      0.604016
                      0.603970
                      0.603920
                      0.603868
                      0.603801
                      0.601078
                      0.577408
                      0.512506
                      0.436895
                      0.425090
                      0.422556
                      0.422017
                      0.421903
                      0.421882
                      0.421881
                      0.421884
                      0.546007
                      0.766046
                      0.766017
                      0.766020
                      0.766024
                      0.766028
                      0.766034
                      0.766048
                      0.766106
                      0.766193
                      0.765471
                      0.756008
                      0.675313
                      0.616047
                      0.608456
                      0.608504
                      0.608548
                      0.608588
                      0.608625
                      0.608657
                      0.608680
        </DataArray>
      </PointData>
    </Piece>
  </UnstructuredGrid>
</VTKFile>
