<VTKFile type="UnstructuredGrid" version="0.1" byte_order="LittleEndian">
  <UnstructuredGrid>
    <Piece NumberOfPoints="41" NumberOfCells="40">
      <Points>
        <DataArray type = "Float32" NumberOfComponents="3" format="ascii">
          0.000000 0 0
          0.500000 0 0
          1.000000 0 0
          1.500000 0 0
          2.000000 0 0
          2.500000 0 0
          3.000000 0 0
          3.500000 0 0
          4.000000 0 0
          4.500000 0 0
          5.000000 0 0
          5.500000 0 0
          6.000000 0 0
          6.500000 0 0
          7.000000 0 0
          7.500000 0 0
          8.000000 0 0
          8.500000 0 0
          9.000000 0 0
          9.500000 0 0
          10.000000 0 0
          10.500000 0 0
          11.000000 0 0
          11.500000 0 0
          12.000000 0 0
          12.500000 0 0
          13.000000 0 0
          13.500000 0 0
          14.000000 0 0
          14.500000 0 0
          15.000000 0 0
          15.500000 0 0
          16.000000 0 0
          16.500000 0 0
          17.000000 0 0
          17.500000 0 0
          18.000000 0 0
          18.500000 0 0
          19.000000 0 0
          19.500000 0 0
          20.000000 0 0
        </DataArray>
      </Points>
      <Cells>
        <DataArray type = "Int32" Name="connectivity" format="ascii">
          0 1
          1 2
          2 3
          3 4
          4 5
          5 6
          6 7
          7 8
          8 9
          9 10
          10 11
          11 12
          12 13
          13 14
          14 15
          15 16
          16 17
          17 18
          18 19
          19 20
          20 21
          21 22
          22 23
          23 24
          24 25
          25 26
          26 27
          27 28
          28 29
          29 30
          30 31
          31 32
          32 33
          33 34
          34 35
          35 36
          36 37
          37 38
          38 39
          39 40
        </DataArray>
        <DataArray type = "Int32" Name="offsets" format="ascii">
          2
          4
          6
          8
          10
          12
          14
          16
          18
          20
          22
          24
          26
          28
          30
          32
          34
          36
          38
          40
          42
          44
          46
          48
          50
          52
          54
          56
          58
          60
          62
          64
          66
          68
          70
          72
          74
          76
          78
          80
        </DataArray>
        <DataArray type = "UInt8" Name="types" format="ascii">
          3
          3
          3
          3
          3
          3
          3
          3
          3
          3
          3
          3
          3
          3
          3
          3
          3
          3
          3
          3
          3
          3
          3
          3
          3
          3
          3
          3
          3
          3
          3
          3
          3
          3
          3
          3
          3
          3
          3
          3
        </DataArray>
      </Cells>
      <CellData>
        <DataArray type="Float32" Name="alpha" format="ascii">
                      1.000000
                      1.000000
                      1.000000
                      1.000000
                      1.000000
                      1.000000
                      1.000000
                      0.982440
                      0.533570
                      0.092434
                      0.000000
                      0.000000
                      0.000000
                      0.000000
                      0.000000
                      0.000000
                      0.000000
                      0.000000
                      0.000000
                      0.000000
                      0.000000
                      0.000000
                      0.000000
                      0.000003
                      0.000037
                      0.000469
                      0.005179
                      0.049677
                      0.423070
                      0.913117
                      1.000000
                      1.000000
                      1.000000
                      1.000000
                      1.000000
                      1.000000
                      1.000000
                      1.000000
                      1.000000
                      1.000000
        </DataArray>
        <DataArray type="Float32" Name="p" format="ascii">
                 100001.020989
                 100003.062868
                 100005.104425
                 100007.145433
                 100009.185695
                 100011.225045
                 100013.263277
                 100042.314744
                 100949.515362
                 103535.287953
                 107122.472348
                 110883.393543
                 114644.333629
                 118405.293264
                 122166.273205
                 125927.274215
                 129688.297050
                 133449.342310
                 137210.410226
                 140971.499982
                 140368.040999
                 135400.039241
                 130432.068007
                 125464.132213
                 120496.305885
                 115529.521829
                 110574.028815
                 105726.757892
                 101922.468015
                 100203.711510
                 100025.734368
                 100023.025517
                 100020.316603
                 100017.607641
                 100014.898644
                 100012.189625
                 100009.480607
                 100006.771623
                 100004.062781
                 100001.354209
        </DataArray>
        <DataArray type="Float32" Name="rho_l" format="ascii">
                    889.796752
                    889.797441
                    889.797841
                    889.798149
                    889.798163
                    889.795865
                    889.776749
                    889.793093
                    889.793735
                    889.795410
                    889.797861
                    889.800474
                    889.803041
                    889.805612
                    889.808184
                    889.810767
                    889.813356
                    889.815888
                    889.818241
                    889.819810
                    889.819117
                    889.815717
                    889.812553
                    889.809366
                    889.806180
                    889.802976
                    889.799747
                    889.796581
                    889.794264
                    889.793627
                    889.850860
                    889.856694
                    889.862538
                    889.868533
                    889.875007
                    889.880953
                    889.883654
                    889.881127
                    889.850476
                    889.806493
        </DataArray>
        <DataArray type="Float32" Name="rho_g" format="ascii">
                      0.484593
                      0.484604
                      0.484614
                      0.484624
                      0.484635
                      0.484642
                      0.484632
                      0.484604
                      0.488279
                      0.500948
                      0.519556
                      0.538022
                      0.556488
                      0.574955
                      0.593421
                      0.611888
                      0.630354
                      0.648821
                      0.667288
                      0.685754
                      0.682790
                      0.658397
                      0.634005
                      0.609612
                      0.585220
                      0.560836
                      0.536463
                      0.511046
                      0.492204
                      0.485462
                      0.484770
                      0.484763
                      0.484756
                      0.484749
                      0.484742
                      0.484735
                      0.484725
                      0.484709
                      0.484664
                      0.484605
        </DataArray>
        <DataArray type="Float32" Name="T_l" format="ascii">
                    449.996518
                    449.995874
                    449.995502
                    449.995214
                    449.995203
                    449.997355
                    450.015169
                    449.999967
                    449.999926
                    449.999955
                    449.999876
                    449.999753
                    449.999673
                    449.999590
                    449.999505
                    449.999410
                    449.999310
                    449.999262
                    449.999383
                    450.000235
                    450.000510
                    450.000623
                    450.000517
                    450.000433
                    450.000347
                    450.000279
                    450.000242
                    450.000212
                    450.000032
                    449.999567
                    449.945907
                    449.940447
                    449.934978
                    449.929367
                    449.923308
                    449.917743
                    449.915214
                    449.917577
                    449.946254
                    449.987404
        </DataArray>
        <DataArray type="Float32" Name="T_g" format="ascii">
                    449.996518
                    449.995874
                    449.995502
                    449.995214
                    449.995203
                    449.997355
                    450.015176
                    450.169823
                    450.867547
                    450.868229
                    449.999876
                    449.999753
                    449.999673
                    449.999590
                    449.999505
                    449.999410
                    449.999310
                    449.999262
                    449.999383
                    450.000235
                    450.000510
                    450.000624
                    450.000518
                    450.000439
                    450.000382
                    449.998254
                    450.032446
                    451.416080
                    451.618469
                    450.110161
                    449.945907
                    449.940447
                    449.934978
                    449.929367
                    449.923308
                    449.917743
                    449.915214
                    449.917577
                    449.946254
                    449.987404
        </DataArray>
      </CellData>
      <PointData>
        <DataArray type="Int32" Name="node_id" format="ascii">
          0
          1
          2
          3
          4
          5
          6
          7
          8
          9
          10
          11
          12
          13
          14
          15
          16
          17
          18
          19
          20
          21
          22
          23
          24
          25
          26
          27
          28
          29
          30
          31
          32
          33
          34
          35
          36
          37
          38
          39
          40
        </DataArray>
        <DataArray type="Float32" Name="v_l" format="ascii">
                     -0.153153
                     -0.146412
                     -0.119040
                     -0.057079
                      0.036812
                      0.089720
                      0.320051
                      1.333331
                      0.103212
                     -0.136172
                     -0.164386
                     -0.164386
                     -0.164386
                     -0.164386
                     -0.164386
                     -0.164386
                     -0.164386
                     -0.164386
                     -0.164385
                     -0.164385
                     -0.164385
                     -0.164386
                     -0.164386
                     -0.164387
                     -0.164391
                     -0.164428
                     -0.164831
                     -0.168771
                     -0.209452
                     -0.445065
                     -0.954067
                     -0.163465
                     -0.163465
                     -0.163466
                     -0.163468
                     -0.163470
                     -0.163473
                     -0.163476
                     -0.163479
                     -0.163482
                     -0.163485
        </DataArray>
        <DataArray type="Float32" Name="v_g" format="ascii">
                     -0.164993
                     -0.164991
                     -0.164988
                     -0.164986
                     -0.164983
                     -0.164982
                     -0.164981
                     -0.166370
                     -0.220993
                     -0.329247
                     -0.328220
                     -0.164386
                     -0.164386
                     -0.164387
                     -0.164390
                     -0.164398
                     -0.164422
                     -0.164490
                     -0.164685
                     -0.165532
                     -0.162681
                     -0.147176
                     -0.109040
                      0.019499
                      0.019499
                      0.019489
                      0.019352
                      0.017999
                      0.001252
                     -0.119513
                     -0.163463
                     -0.163464
                     -0.163465
                     -0.163467
                     -0.163469
                     -0.163471
                     -0.163473
                     -0.163476
                     -0.163479
                     -0.163482
                     -0.163485
        </DataArray>
      </PointData>
    </Piece>
  </UnstructuredGrid>
</VTKFile>
