<VTKFile type="UnstructuredGrid" version="0.1" byte_order="LittleEndian">
  <UnstructuredGrid>
    <Piece NumberOfPoints="201" NumberOfCells="200">
      <Points>
        <DataArray type = "Float32" NumberOfComponents="3" format="ascii">
          0.000000 0 0
          0.100000 0 0
          0.200000 0 0
          0.300000 0 0
          0.400000 0 0
          0.500000 0 0
          0.600000 0 0
          0.700000 0 0
          0.800000 0 0
          0.900000 0 0
          1.000000 0 0
          1.100000 0 0
          1.200000 0 0
          1.300000 0 0
          1.400000 0 0
          1.500000 0 0
          1.600000 0 0
          1.700000 0 0
          1.800000 0 0
          1.900000 0 0
          2.000000 0 0
          2.100000 0 0
          2.200000 0 0
          2.300000 0 0
          2.400000 0 0
          2.500000 0 0
          2.600000 0 0
          2.700000 0 0
          2.800000 0 0
          2.900000 0 0
          3.000000 0 0
          3.100000 0 0
          3.200000 0 0
          3.300000 0 0
          3.400000 0 0
          3.500000 0 0
          3.600000 0 0
          3.700000 0 0
          3.800000 0 0
          3.900000 0 0
          4.000000 0 0
          4.100000 0 0
          4.200000 0 0
          4.300000 0 0
          4.400000 0 0
          4.500000 0 0
          4.600000 0 0
          4.700000 0 0
          4.800000 0 0
          4.900000 0 0
          5.000000 0 0
          5.100000 0 0
          5.200000 0 0
          5.300000 0 0
          5.400000 0 0
          5.500000 0 0
          5.600000 0 0
          5.700000 0 0
          5.800000 0 0
          5.900000 0 0
          6.000000 0 0
          6.100000 0 0
          6.200000 0 0
          6.300000 0 0
          6.400000 0 0
          6.500000 0 0
          6.600000 0 0
          6.700000 0 0
          6.800000 0 0
          6.900000 0 0
          7.000000 0 0
          7.100000 0 0
          7.200000 0 0
          7.300000 0 0
          7.400000 0 0
          7.500000 0 0
          7.600000 0 0
          7.700000 0 0
          7.800000 0 0
          7.900000 0 0
          8.000000 0 0
          8.100000 0 0
          8.200000 0 0
          8.300000 0 0
          8.400000 0 0
          8.500000 0 0
          8.600000 0 0
          8.700000 0 0
          8.800000 0 0
          8.900000 0 0
          9.000000 0 0
          9.100000 0 0
          9.200000 0 0
          9.300000 0 0
          9.400000 0 0
          9.500000 0 0
          9.600000 0 0
          9.700000 0 0
          9.800000 0 0
          9.900000 0 0
          10.000000 0 0
          10.100000 0 0
          10.200000 0 0
          10.300000 0 0
          10.400000 0 0
          10.500000 0 0
          10.600000 0 0
          10.700000 0 0
          10.800000 0 0
          10.900000 0 0
          11.000000 0 0
          11.100000 0 0
          11.200000 0 0
          11.300000 0 0
          11.400000 0 0
          11.500000 0 0
          11.600000 0 0
          11.700000 0 0
          11.800000 0 0
          11.900000 0 0
          12.000000 0 0
          12.100000 0 0
          12.200000 0 0
          12.300000 0 0
          12.400000 0 0
          12.500000 0 0
          12.600000 0 0
          12.700000 0 0
          12.800000 0 0
          12.900000 0 0
          13.000000 0 0
          13.100000 0 0
          13.200000 0 0
          13.300000 0 0
          13.400000 0 0
          13.500000 0 0
          13.600000 0 0
          13.700000 0 0
          13.800000 0 0
          13.900000 0 0
          14.000000 0 0
          14.100000 0 0
          14.200000 0 0
          14.300000 0 0
          14.400000 0 0
          14.500000 0 0
          14.600000 0 0
          14.700000 0 0
          14.800000 0 0
          14.900000 0 0
          15.000000 0 0
          15.100000 0 0
          15.200000 0 0
          15.300000 0 0
          15.400000 0 0
          15.500000 0 0
          15.600000 0 0
          15.700000 0 0
          15.800000 0 0
          15.900000 0 0
          16.000000 0 0
          16.100000 0 0
          16.200000 0 0
          16.300000 0 0
          16.400000 0 0
          16.500000 0 0
          16.600000 0 0
          16.700000 0 0
          16.800000 0 0
          16.900000 0 0
          17.000000 0 0
          17.100000 0 0
          17.200000 0 0
          17.300000 0 0
          17.400000 0 0
          17.500000 0 0
          17.600000 0 0
          17.700000 0 0
          17.800000 0 0
          17.900000 0 0
          18.000000 0 0
          18.100000 0 0
          18.200000 0 0
          18.300000 0 0
          18.400000 0 0
          18.500000 0 0
          18.600000 0 0
          18.700000 0 0
          18.800000 0 0
          18.900000 0 0
          19.000000 0 0
          19.100000 0 0
          19.200000 0 0
          19.300000 0 0
          19.400000 0 0
          19.500000 0 0
          19.600000 0 0
          19.700000 0 0
          19.800000 0 0
          19.900000 0 0
          20.000000 0 0
        </DataArray>
      </Points>
      <Cells>
        <DataArray type = "Int32" Name="connectivity" format="ascii">
          0 1
          1 2
          2 3
          3 4
          4 5
          5 6
          6 7
          7 8
          8 9
          9 10
          10 11
          11 12
          12 13
          13 14
          14 15
          15 16
          16 17
          17 18
          18 19
          19 20
          20 21
          21 22
          22 23
          23 24
          24 25
          25 26
          26 27
          27 28
          28 29
          29 30
          30 31
          31 32
          32 33
          33 34
          34 35
          35 36
          36 37
          37 38
          38 39
          39 40
          40 41
          41 42
          42 43
          43 44
          44 45
          45 46
          46 47
          47 48
          48 49
          49 50
          50 51
          51 52
          52 53
          53 54
          54 55
          55 56
          56 57
          57 58
          58 59
          59 60
          60 61
          61 62
          62 63
          63 64
          64 65
          65 66
          66 67
          67 68
          68 69
          69 70
          70 71
          71 72
          72 73
          73 74
          74 75
          75 76
          76 77
          77 78
          78 79
          79 80
          80 81
          81 82
          82 83
          83 84
          84 85
          85 86
          86 87
          87 88
          88 89
          89 90
          90 91
          91 92
          92 93
          93 94
          94 95
          95 96
          96 97
          97 98
          98 99
          99 100
          100 101
          101 102
          102 103
          103 104
          104 105
          105 106
          106 107
          107 108
          108 109
          109 110
          110 111
          111 112
          112 113
          113 114
          114 115
          115 116
          116 117
          117 118
          118 119
          119 120
          120 121
          121 122
          122 123
          123 124
          124 125
          125 126
          126 127
          127 128
          128 129
          129 130
          130 131
          131 132
          132 133
          133 134
          134 135
          135 136
          136 137
          137 138
          138 139
          139 140
          140 141
          141 142
          142 143
          143 144
          144 145
          145 146
          146 147
          147 148
          148 149
          149 150
          150 151
          151 152
          152 153
          153 154
          154 155
          155 156
          156 157
          157 158
          158 159
          159 160
          160 161
          161 162
          162 163
          163 164
          164 165
          165 166
          166 167
          167 168
          168 169
          169 170
          170 171
          171 172
          172 173
          173 174
          174 175
          175 176
          176 177
          177 178
          178 179
          179 180
          180 181
          181 182
          182 183
          183 184
          184 185
          185 186
          186 187
          187 188
          188 189
          189 190
          190 191
          191 192
          192 193
          193 194
          194 195
          195 196
          196 197
          197 198
          198 199
          199 200
        </DataArray>
        <DataArray type = "Int32" Name="offsets" format="ascii">
          2
          4
          6
          8
          10
          12
          14
          16
          18
          20
          22
          24
          26
          28
          30
          32
          34
          36
          38
          40
          42
          44
          46
          48
          50
          52
          54
          56
          58
          60
          62
          64
          66
          68
          70
          72
          74
          76
          78
          80
          82
          84
          86
          88
          90
          92
          94
          96
          98
          100
          102
          104
          106
          108
          110
          112
          114
          116
          118
          120
          122
          124
          126
          128
          130
          132
          134
          136
          138
          140
          142
          144
          146
          148
          150
          152
          154
          156
          158
          160
          162
          164
          166
          168
          170
          172
          174
          176
          178
          180
          182
          184
          186
          188
          190
          192
          194
          196
          198
          200
          202
          204
          206
          208
          210
          212
          214
          216
          218
          220
          222
          224
          226
          228
          230
          232
          234
          236
          238
          240
          242
          244
          246
          248
          250
          252
          254
          256
          258
          260
          262
          264
          266
          268
          270
          272
          274
          276
          278
          280
          282
          284
          286
          288
          290
          292
          294
          296
          298
          300
          302
          304
          306
          308
          310
          312
          314
          316
          318
          320
          322
          324
          326
          328
          330
          332
          334
          336
          338
          340
          342
          344
          346
          348
          350
          352
          354
          356
          358
          360
          362
          364
          366
          368
          370
          372
          374
          376
          378
          380
          382
          384
          386
          388
          390
          392
          394
          396
          398
          400
        </DataArray>
        <DataArray type = "UInt8" Name="types" format="ascii">
          3
          3
          3
          3
          3
          3
          3
          3
          3
          3
          3
          3
          3
          3
          3
          3
          3
          3
          3
          3
          3
          3
          3
          3
          3
          3
          3
          3
          3
          3
          3
          3
          3
          3
          3
          3
          3
          3
          3
          3
          3
          3
          3
          3
          3
          3
          3
          3
          3
          3
          3
          3
          3
          3
          3
          3
          3
          3
          3
          3
          3
          3
          3
          3
          3
          3
          3
          3
          3
          3
          3
          3
          3
          3
          3
          3
          3
          3
          3
          3
          3
          3
          3
          3
          3
          3
          3
          3
          3
          3
          3
          3
          3
          3
          3
          3
          3
          3
          3
          3
          3
          3
          3
          3
          3
          3
          3
          3
          3
          3
          3
          3
          3
          3
          3
          3
          3
          3
          3
          3
          3
          3
          3
          3
          3
          3
          3
          3
          3
          3
          3
          3
          3
          3
          3
          3
          3
          3
          3
          3
          3
          3
          3
          3
          3
          3
          3
          3
          3
          3
          3
          3
          3
          3
          3
          3
          3
          3
          3
          3
          3
          3
          3
          3
          3
          3
          3
          3
          3
          3
          3
          3
          3
          3
          3
          3
          3
          3
          3
          3
          3
          3
          3
          3
          3
          3
          3
          3
          3
          3
          3
          3
          3
          3
          3
          3
          3
          3
          3
          3
        </DataArray>
      </Cells>
      <CellData>
        <DataArray type="Float32" Name="alpha" format="ascii">
                      1.000000
                      1.000000
                      1.000000
                      1.000000
                      1.000000
                      1.000000
                      1.000000
                      1.000000
                      1.000000
                      1.000000
                      1.000000
                      1.000000
                      1.000000
                      1.000000
                      1.000000
                      1.000000
                      1.000000
                      1.000000
                      1.000000
                      1.000000
                      1.000000
                      1.000000
                      1.000000
                      1.000000
                      1.000000
                      1.000000
                      1.000000
                      1.000000
                      1.000000
                      1.000000
                      1.000000
                      1.000000
                      1.000000
                      1.000000
                      1.000000
                      1.000000
                      1.000000
                      1.000000
                      1.000000
                      1.000000
                      1.000000
                      1.000000
                      0.738363
                      0.178535
                      0.045932
                      0.010814
                      0.002134
                      0.000326
                      0.000034
                      0.000002
                     -0.000000
                     -0.000000
                     -0.000000
                     -0.000000
                     -0.000000
                     -0.000000
                     -0.000000
                     -0.000000
                     -0.000000
                     -0.000000
                     -0.000000
                     -0.000000
                     -0.000000
                     -0.000000
                      0.000000
                      0.000000
                      0.000000
                      0.000000
                      0.000000
                     -0.000000
                     -0.000000
                     -0.000000
                     -0.000000
                     -0.000000
                     -0.000000
                     -0.000000
                     -0.000000
                      0.000000
                      0.000000
                      0.000000
                      0.000000
                      0.000000
                      0.000000
                      0.000000
                     -0.000000
                     -0.000000
                     -0.000000
                     -0.000000
                      0.000000
                     -0.000000
                     -0.000000
                     -0.000000
                     -0.000000
                     -0.000000
                     -0.000000
                     -0.000000
                     -0.000000
                     -0.000000
                     -0.000000
                     -0.000000
                     -0.000000
                      0.000000
                     -0.000000
                     -0.000000
                      0.000000
                      0.000000
                      0.000000
                      0.000000
                      0.000000
                      0.000000
                      0.000000
                      0.000000
                      0.000000
                      0.000000
                      0.000000
                      0.000000
                      0.000000
                      0.000000
                      0.000000
                      0.000000
                      0.000000
                      0.000000
                      0.000000
                      0.000000
                      0.000000
                      0.000000
                      0.000000
                      0.000000
                      0.000000
                      0.000000
                      0.000000
                      0.000000
                      0.000000
                      0.000000
                      0.000000
                      0.000001
                      0.000005
                      0.000031
                      0.000183
                      0.001021
                      0.005575
                      0.030731
                      0.218762
                      0.779473
                      0.988095
                      0.999978
                      1.000000
                      1.000000
                      1.000000
                      1.000000
                      1.000000
                      1.000000
                      1.000000
                      1.000000
                      1.000000
                      1.000000
                      1.000000
                      1.000000
                      1.000000
                      1.000000
                      1.000000
                      1.000000
                      1.000000
                      1.000000
                      1.000000
                      1.000000
                      1.000000
                      1.000000
                      1.000000
                      1.000000
                      1.000000
                      1.000000
                      1.000000
                      1.000000
                      1.000000
                      1.000000
                      1.000000
                      1.000000
                      1.000000
                      1.000000
                      1.000000
                      1.000000
                      1.000000
                      1.000000
                      1.000000
                      1.000000
                      1.000000
                      1.000000
                      1.000000
                      1.000000
                      1.000000
                      1.000000
                      1.000000
                      1.000000
                      1.000000
                      1.000000
                      1.000000
                      1.000000
                      1.000000
                      1.000000
        </DataArray>
        <DataArray type="Float32" Name="p" format="ascii">
                 100000.211255
                 100000.633768
                 100001.056285
                 100001.478805
                 100001.901328
                 100002.323855
                 100002.746384
                 100003.168915
                 100003.591449
                 100004.013985
                 100004.436523
                 100004.859062
                 100005.281603
                 100005.704145
                 100006.126687
                 100006.549230
                 100006.971774
                 100007.394318
                 100007.816862
                 100008.239406
                 100008.661949
                 100009.084492
                 100009.507034
                 100009.929576
                 100010.352116
                 100010.774655
                 100011.197193
                 100011.619729
                 100012.042264
                 100012.464797
                 100012.887328
                 100013.309858
                 100013.732386
                 100014.154913
                 100014.577439
                 100014.999965
                 100015.422490
                 100015.845014
                 100016.267537
                 100016.690059
                 100017.112579
                 100017.534326
                 100136.896917
                 100603.915974
                 101355.943365
                 102177.195142
                 103016.556937
                 103860.262299
                 104704.839661
                 105549.552237
                 106394.279119
                 107239.006079
                 108083.733120
                 108928.460241
                 109773.187445
                 110617.914732
                 111462.642103
                 112307.369560
                 113152.097104
                 113996.824735
                 114841.552455
                 115686.280265
                 116531.008166
                 117375.736160
                 118220.464246
                 119065.192428
                 119909.920704
                 120754.649078
                 121599.377549
                 122444.106119
                 123288.834789
                 124133.563561
                 124978.292434
                 125823.021411
                 126667.750493
                 127512.479680
                 128357.208974
                 129201.938376
                 130046.667887
                 130891.397508
                 131736.127240
                 132580.857084
                 133425.587043
                 134270.317115
                 135115.047304
                 135959.777609
                 136804.508033
                 137649.238576
                 138493.969239
                 139338.700023
                 140183.430930
                 141028.161961
                 141872.893116
                 142717.624397
                 143562.355806
                 144407.087342
                 145251.819009
                 146096.550805
                 146941.282736
                 147786.014800
                 147649.743250
                 146532.468105
                 145415.193122
                 144297.918304
                 143180.643650
                 142063.369163
                 140946.094844
                 139828.820693
                 138711.546712
                 137594.272902
                 136476.999264
                 135359.725799
                 134242.452509
                 133125.179394
                 132007.906456
                 130890.633696
                 129773.361116
                 128656.088715
                 127538.816496
                 126421.544459
                 125304.272606
                 124187.000937
                 123069.729455
                 121952.458160
                 120835.187054
                 119717.916137
                 118600.645410
                 117483.374876
                 116366.104535
                 115248.834388
                 114131.564436
                 113014.294681
                 111897.025123
                 110779.755763
                 109662.486594
                 108545.217563
                 107427.950571
                 106310.698650
                 105193.533758
                 104076.855506
                 102962.823178
                 101863.192979
                 100874.333754
                 100288.605703
                 100035.222933
                 100030.386904
                 100029.827992
                 100029.269625
                 100028.711303
                 100028.153022
                 100027.594781
                 100027.036578
                 100026.478413
                 100025.920284
                 100025.362192
                 100024.804136
                 100024.246115
                 100023.688129
                 100023.130177
                 100022.572260
                 100022.014376
                 100021.456526
                 100020.898709
                 100020.340924
                 100019.783173
                 100019.225453
                 100018.667766
                 100018.110110
                 100017.552485
                 100016.994892
                 100016.437329
                 100015.879796
                 100015.322293
                 100014.764819
                 100014.207374
                 100013.649957
                 100013.092568
                 100012.535205
                 100011.977870
                 100011.420560
                 100010.863275
                 100010.306014
                 100009.748777
                 100009.191563
                 100008.634371
                 100008.077200
                 100007.520049
                 100006.962917
                 100006.405804
                 100005.848709
                 100005.291630
                 100004.734566
                 100004.177517
                 100003.620481
                 100003.063457
                 100002.506445
                 100001.949443
                 100001.392450
                 100000.835465
                 100000.278487
        </DataArray>
        <DataArray type="Float32" Name="rho_l" format="ascii">
                   1000.000000
                   1000.000000
                   1000.000000
                   1000.000000
                   1000.000000
                   1000.000000
                   1000.000000
                   1000.000000
                   1000.000000
                   1000.000000
                   1000.000000
                   1000.000000
                   1000.000001
                   1000.000001
                   1000.000001
                   1000.000001
                   1000.000001
                   1000.000001
                   1000.000001
                   1000.000001
                   1000.000001
                   1000.000001
                   1000.000001
                   1000.000001
                   1000.000001
                   1000.000001
                   1000.000001
                   1000.000001
                   1000.000001
                   1000.000001
                   1000.000001
                   1000.000001
                   1000.000001
                   1000.000001
                   1000.000001
                   1000.000001
                   1000.000002
                   1000.000002
                   1000.000002
                   1000.000002
                   1000.000002
                   1000.000002
                   1000.000014
                   1000.000060
                   1000.000136
                   1000.000218
                   1000.000302
                   1000.000386
                   1000.000470
                   1000.000555
                   1000.000639
                   1000.000724
                   1000.000808
                   1000.000893
                   1000.000977
                   1000.001062
                   1000.001146
                   1000.001231
                   1000.001315
                   1000.001400
                   1000.001484
                   1000.001569
                   1000.001653
                   1000.001738
                   1000.001822
                   1000.001907
                   1000.001991
                   1000.002075
                   1000.002160
                   1000.002244
                   1000.002329
                   1000.002413
                   1000.002498
                   1000.002582
                   1000.002667
                   1000.002751
                   1000.002836
                   1000.002920
                   1000.003005
                   1000.003089
                   1000.003174
                   1000.003258
                   1000.003343
                   1000.003427
                   1000.003512
                   1000.003596
                   1000.003680
                   1000.003765
                   1000.003849
                   1000.003934
                   1000.004018
                   1000.004103
                   1000.004187
                   1000.004272
                   1000.004356
                   1000.004441
                   1000.004525
                   1000.004610
                   1000.004694
                   1000.004779
                   1000.004765
                   1000.004653
                   1000.004542
                   1000.004430
                   1000.004318
                   1000.004206
                   1000.004095
                   1000.003983
                   1000.003871
                   1000.003759
                   1000.003648
                   1000.003536
                   1000.003424
                   1000.003313