<VTKFile type="UnstructuredGrid" version="0.1" byte_order="LittleEndian">
  <UnstructuredGrid>
    <Piece NumberOfPoints="51" NumberOfCells="50">
      <Points>
        <DataArray type = "Float32" NumberOfComponents="3" format="ascii">
          0.000000 0 0
          0.040000 0 0
          0.080000 0 0
          0.120000 0 0
          0.160000 0 0
          0.200000 0 0
          0.240000 0 0
          0.280000 0 0
          0.320000 0 0
          0.360000 0 0
          0.400000 0 0
          0.440000 0 0
          0.480000 0 0
          0.520000 0 0
          0.560000 0 0
          0.600000 0 0
          0.640000 0 0
          0.680000 0 0
          0.720000 0 0
          0.760000 0 0
          0.800000 0 0
          0.840000 0 0
          0.880000 0 0
          0.920000 0 0
          0.960000 0 0
          1.000000 0 0
          1.040000 0 0
          1.080000 0 0
          1.120000 0 0
          1.160000 0 0
          1.200000 0 0
          1.240000 0 0
          1.280000 0 0
          1.320000 0 0
          1.360000 0 0
          1.400000 0 0
          1.440000 0 0
          1.480000 0 0
          1.520000 0 0
          1.560000 0 0
          1.600000 0 0
          1.640000 0 0
          1.680000 0 0
          1.720000 0 0
          1.760000 0 0
          1.800000 0 0
          1.840000 0 0
          1.880000 0 0
          1.920000 0 0
          1.960000 0 0
          2.000000 0 0
        </DataArray>
      </Points>
      <Cells>
        <DataArray type = "Int32" Name="connectivity" format="ascii">
          0 1
          1 2
          2 3
          3 4
          4 5
          5 6
          6 7
          7 8
          8 9
          9 10
          10 11
          11 12
          12 13
          13 14
          14 15
          15 16
          16 17
          17 18
          18 19
          19 20
          20 21
          21 22
          22 23
          23 24
          24 25
          25 26
          26 27
          27 28
          28 29
          29 30
          30 31
          31 32
          32 33
          33 34
          34 35
          35 36
          36 37
          37 38
          38 39
          39 40
          40 41
          41 42
          42 43
          43 44
          44 45
          45 46
          46 47
          47 48
          48 49
          49 50
        </DataArray>
        <DataArray type = "Int32" Name="offsets" format="ascii">
          2
          4
          6
          8
          10
          12
          14
          16
          18
          20
          22
          24
          26
          28
          30
          32
          34
          36
          38
          40
          42
          44
          46
          48
          50
          52
          54
          56
          58
          60
          62
          64
          66
          68
          70
          72
          74
          76
          78
          80
          82
          84
          86
          88
          90
          92
          94
          96
          98
          100
        </DataArray>
        <DataArray type = "UInt8" Name="types" format="ascii">
          3
          3
          3
          3
          3
          3
          3
          3
          3
          3
          3
          3
          3
          3
          3
          3
          3
          3
          3
          3
          3
          3
          3
          3
          3
          3
          3
          3
          3
          3
          3
          3
          3
          3
          3
          3
          3
          3
          3
          3
          3
          3
          3
          3
          3
          3
          3
          3
          3
          3
        </DataArray>
      </Cells>
      <CellData>
        <DataArray type="Float32" Name="alpha" format="ascii">
                      0.000000
                      0.000000
                      0.000000
                      0.000000
                      0.000000
                      0.000000
                      0.000000
                      0.000000
                      0.000000
                      0.000000
                      0.000000
                      0.000000
                      0.000000
                      0.000000
                      0.000000
                      0.000000
                      0.000000
                      0.000000
                      0.000000
                      0.000000
                      0.000000
                      0.000000
                      0.000000
                      0.000002
                      0.000033
                      0.999977
                      1.000000
                      1.000000
                      1.000000
                      1.000000
                      1.000000
                      1.000000
                      1.000000
                      1.000000
                      1.000000
                      1.000000
                      1.000000
                      1.000000
                      1.000000
                      1.000000
                      1.000000
                      1.000000
                      1.000000
                      1.000000
                      1.000000
                      1.000000
                      1.000000
                      1.000000
                      1.000000
                      1.000000
        </DataArray>
        <DataArray type="Float32" Name="p" format="ascii">
                 109662.128423
                 109269.728444
                 108877.328480
                 108484.928532
                 108092.528599
                 107700.128682
                 107307.728780
                 106915.328893
                 106522.929022
                 106130.529167
                 105738.129326
                 105345.729501
                 104953.329692
                 104560.929898
                 104168.530119
                 103776.130356
                 103383.730609
                 102991.330876
                 102598.931159
                 102206.531458
                 101814.131772
                 101421.732100
                 101029.332442
                 100636.932841
                 100244.539614
                 100002.329311
                 100002.133065
                 100001.936857
                 100001.740650
                 100001.544443
                 100001.348238
                 100001.152033
                 100000.955828
                 100000.759625
                 100000.563422
                 100000.367221
                 100000.171019
                  99999.974819
                  99999.778620
                  99999.582421
                  99999.386223
                  99999.190026
                  99998.993829
                  99998.797634
                  99998.601439
                  99998.405244
                  99998.209051
                  99998.012859
                  99997.816667
                  99997.620476
        </DataArray>
        <DataArray type="Float32" Name="rho_l" format="ascii">
                   1000.000966
                   1000.000927
                   1000.000888
                   1000.000848
                   1000.000809
                   1000.000770
                   1000.000731
                   1000.000692
                   1000.000652
                   1000.000613
                   1000.000574
                   1000.000535
                   1000.000495
                   1000.000456
                   1000.000417
                   1000.000378
                   1000.000338
                   1000.000299
                   1000.000260
                   1000.000221
                   1000.000181
                   1000.000142
                   1000.000103
                   1000.000064
                   1000.000024
                   1000.000000
                   1000.000000
                   1000.000000
                   1000.000000
                   1000.000000
                   1000.000000
                   1000.000000
                   1000.000000
                   1000.000000
                   1000.000000
                   1000.000000
                   1000.000000
                   1000.000000
                   1000.000000
                   1000.000000
                   1000.000000
                   1000.000000
                   1000.000000
                   1000.000000
                   1000.000000
                   1000.000000
                   1000.000000
                   1000.000000
                   1000.000000
                   1000.000000
        </DataArray>
        <DataArray type="Float32" Name="rho_g" format="ascii">
                      0.596621
                      0.592697
                      0.588773
                      0.584849
                      0.580925
                      0.577001
                      0.573077
                      0.569153
                      0.565229
                      0.561305
                      0.557381
                      0.553457
                      0.549533
                      0.545609
                      0.541685
                      0.537761
                      0.533837
                      0.529913
                      0.525989
                      0.522065
                      0.518141
                      0.514217
                      0.510293
                      0.506369
                      0.502445
                      0.500023
                      0.500021
                      0.500019
                      0.500017
                      0.500015
                      0.500013
                      0.500012
                      0.500010
                      0.500008
                      0.500006
                      0.500004
                      0.500002
                      0.500000
                      0.499998
                      0.499996
                      0.499994
                      0.499992
                      0.499990
                      0.499988
                      0.499986
                      0.499984
                      0.499982
                      0.499980
                      0.499978
                      0.499976
        </DataArray>
      </CellData>
      <PointData>
        <DataArray type="Int32" Name="node_id" format="ascii">
          0
          1
          2
          3
          4
          5
          6
          7
          8
          9
          10
          11
          12
          13
          14
          15
          16
          17
          18
          19
          20
          21
          22
          23
          24
          25
          26
          27
          28
          29
          30
          31
          32
          33
          34
          35
          36
          37
          38
          39
          40
          41
          42
          43
          44
          45
          46
          47
          48
          49
          50
        </DataArray>
        <DataArray type="Float32" Name="v_l" format="ascii">
                      0.000000
                     -0.000000
                     -0.000000
                     -0.000000
                     -0.000000
                     -0.000000
                     -0.000000
                     -0.000000
                     -0.000000
                     -0.000000
                     -0.000000
                     -0.000000
                     -0.000000
                     -0.000000
                     -0.000000
                     -0.000000
                     -0.000000
                     -0.000000
                     -0.000000
                     -0.000000
                     -0.000000
                     -0.000000
                     -0.000000
                     -0.000000
                     -0.000000
                     -0.157831
                     -0.684151
                     -0.112735
                     -0.108277
                     -0.102969
                     -0.097541
                     -0.092186
                     -0.086973
                     -0.081890
                     -0.076882
                     -0.071900
                     -0.066911
                     -0.061897
                     -0.056848
                     -0.051757
                     -0.046622
                     -0.041439
                     -0.036203
                     -0.030911
                     -0.025554
                     -0.020116
                     -0.014577
                     -0.008926
                     -0.003345
                      0.001007
                      0.000000
        </DataArray>
        <DataArray type="Float32" Name="v_g" format="ascii">
                      0.000000
                      0.172414
                      0.172416
                      0.172416
                      0.172416
                      0.172416
                      0.172416
                      0.172416
                      0.172416
                      0.172416
                      0.172416
                      0.172416
                      0.172416
                      0.172416
                      0.172416
                      0.172416
                      0.172416
                      0.172416
                      0.172416
                      0.172416
                      0.172416
                      0.172414
                      0.172407
                      0.172372
                      0.172374
                      0.112918
                      0.000000
                      0.000000
                      0.000000
                      0.000000
                      0.000000
                      0.000000
                      0.000000
                      0.000000
                      0.000000
                      0.000000
                      0.000000
                      0.000000
                      0.000000
                      0.000000
                      0.000000
                      0.000000
                      0.000000
                      0.000000
                      0.000000
                      0.000000
                      0.000000
                      0.000000
                      0.000000
                      0.000000
                      0.000000
        </DataArray>
      </PointData>
    </Piece>
  </UnstructuredGrid>
</VTKFile>
