<VTKFile type="UnstructuredGrid" version="0.1" byte_order="LittleEndian">
  <UnstructuredGrid>
    <Piece NumberOfPoints="51" NumberOfCells="50">
      <Points>
        <DataArray type = "Float32" NumberOfComponents="3" format="ascii">
          0.000000 0 0
          0.040000 0 0
          0.080000 0 0
          0.120000 0 0
          0.160000 0 0
          0.200000 0 0
          0.240000 0 0
          0.280000 0 0
          0.320000 0 0
          0.360000 0 0
          0.400000 0 0
          0.440000 0 0
          0.480000 0 0
          0.520000 0 0
          0.560000 0 0
          0.600000 0 0
          0.640000 0 0
          0.680000 0 0
          0.720000 0 0
          0.760000 0 0
          0.800000 0 0
          0.840000 0 0
          0.880000 0 0
          0.920000 0 0
          0.960000 0 0
          1.000000 0 0
          1.040000 0 0
          1.080000 0 0
          1.120000 0 0
          1.160000 0 0
          1.200000 0 0
          1.240000 0 0
          1.280000 0 0
          1.320000 0 0
          1.360000 0 0
          1.400000 0 0
          1.440000 0 0
          1.480000 0 0
          1.520000 0 0
          1.560000 0 0
          1.600000 0 0
          1.640000 0 0
          1.680000 0 0
          1.720000 0 0
          1.760000 0 0
          1.800000 0 0
          1.840000 0 0
          1.880000 0 0
          1.920000 0 0
          1.960000 0 0
          2.000000 0 0
        </DataArray>
      </Points>
      <Cells>
        <DataArray type = "Int32" Name="connectivity" format="ascii">
          0 1
          1 2
          2 3
          3 4
          4 5
          5 6
          6 7
          7 8
          8 9
          9 10
          10 11
          11 12
          12 13
          13 14
          14 15
          15 16
          16 17
          17 18
          18 19
          19 20
          20 21
          21 22
          22 23
          23 24
          24 25
          25 26
          26 27
          27 28
          28 29
          29 30
          30 31
          31 32
          32 33
          33 34
          34 35
          35 36
          36 37
          37 38
          38 39
          39 40
          40 41
          41 42
          42 43
          43 44
          44 45
          45 46
          46 47
          47 48
          48 49
          49 50
        </DataArray>
        <DataArray type = "Int32" Name="offsets" format="ascii">
          2
          4
          6
          8
          10
          12
          14
          16
          18
          20
          22
          24
          26
          28
          30
          32
          34
          36
          38
          40
          42
          44
          46
          48
          50
          52
          54
          56
          58
          60
          62
          64
          66
          68
          70
          72
          74
          76
          78
          80
          82
          84
          86
          88
          90
          92
          94
          96
          98
          100
        </DataArray>
        <DataArray type = "UInt8" Name="types" format="ascii">
          3
          3
          3
          3
          3
          3
          3
          3
          3
          3
          3
          3
          3
          3
          3
          3
          3
          3
          3
          3
          3
          3
          3
          3
          3
          3
          3
          3
          3
          3
          3
          3
          3
          3
          3
          3
          3
          3
          3
          3
          3
          3
          3
          3
          3
          3
          3
          3
          3
          3
        </DataArray>
      </Cells>
      <CellData>
        <DataArray type="Float32" Name="alpha" format="ascii">
                      0.000000
                      0.000000
                      0.000001
                      0.000000
                      0.000000
                      0.000000
                      0.000001
                      0.000001
                      0.000002
                      0.000001
                      0.000000
                      0.000002
                      0.000001
                      0.000001
                      0.000002
                      0.000002
                      0.000002
                      0.000002
                      0.000002
                      0.000002
                      0.000002
                      0.000001
                      0.000001
                      0.000003
                      0.000036
                      0.999978
                      1.000000
                      1.000001
                      1.000002
                      1.000000
                      1.000001
                      1.000001
                      1.000001
                      1.000001
                      1.000001
                      1.000001
                      1.000000
                      1.000001
                      1.000001
                      1.000002
                      1.000002
                      1.000002
                      1.000001
                      1.000001
                      1.000001
                      1.000001
                      1.000001
                      1.000002
                      1.000002
                      1.000001
        </DataArray>
        <DataArray type="Float32" Name="p" format="ascii">
                 109652.981181
                 109260.581203
                 108868.181232
                 108475.781272
                 108083.381347
                 107690.981428
                 107298.581537
                 106906.181635
                 106513.781843
                 106121.382172
                 105728.982388
                 105336.582600
                 104944.182817
                 104551.783082
                 104159.383563
                 103766.984108
                 103374.584600
                 102982.185154
                 102589.785844
                 102197.386618
                 101804.987344
                 101412.587814
                 101020.188218
                 100627.788878
                 100235.396341
                 100002.327415
                 100002.131182
                 100001.934975
                 100001.738772
                 100001.542566
                 100001.346362
                 100001.150161
                 100000.953959
                 100000.757757
                 100000.561557
                 100000.365357
                 100000.169156
                  99999.972957
                  99999.776761
                  99999.580570
                  99999.384380
                  99999.188191
                  99998.991999
                  99998.795805
                  99998.599612
                  99998.403422
                  99998.207235
                  99998.011050
                  99997.814865
                  99997.618679
        </DataArray>
        <DataArray type="Float32" Name="rho_l" format="ascii">
                   1000.000965
                   1000.000926
                   1000.000887
                   1000.000848
                   1000.000808
                   1000.000769
                   1000.000730
                   1000.000691
                   1000.000651
                   1000.000612
                   1000.000573
                   1000.000534
                   1000.000494
                   1000.000455
                   1000.000416
                   1000.000377
                   1000.000337
                   1000.000298
                   1000.000259
                   1000.000220
                   1000.000180
                   1000.000141
                   1000.000102
                   1000.000063
                   1000.000024
                   1000.000000
                   1000.000000
                   1000.000000
                   1000.000000
                   1000.000000
                   1000.000000
                   1000.000000
                   1000.000000
                   1000.000000
                   1000.000000
                   1000.000000
                   1000.000000
                   1000.000000
                   1000.000000
                   1000.000000
                   1000.000000
                   1000.000000
                   1000.000000
                   1000.000000
                   1000.000000
                   1000.000000
                   1000.000000
                   1000.000000
                   1000.000000
                   1000.000000
        </DataArray>
        <DataArray type="Float32" Name="rho_g" format="ascii">
                      0.596530
                      0.592606
                      0.588682
                      0.584758
                      0.580834
                      0.576910
                      0.572986
                      0.569062
                      0.565138
                      0.561214
                      0.557290
                      0.553366
                      0.549442
                      0.545518
                      0.541594
                      0.537670
                      0.533746
                      0.529822
                      0.525898
                      0.521974
                      0.518050
                      0.514126
                      0.510202
                      0.506278
                      0.502354
                      0.500023
                      0.500021
                      0.500019
                      0.500017
                      0.500015
                      0.500013
                      0.500012
                      0.500010
                      0.500008
                      0.500006
                      0.500004
                      0.500002
                      0.500000
                      0.499998
                      0.499996
                      0.499994
                      0.499992
                      0.499990
                      0.499988
                      0.499986
                      0.499984
                      0.499982
                      0.499980
                      0.499978
                      0.499976
        </DataArray>
      </CellData>
      <PointData>
        <DataArray type="Int32" Name="node_id" format="ascii">
          0
          1
          2
          3
          4
          5
          6
          7
          8
          9
          10
          11
          12
          13
          14
          15
          16
          17
          18
          19
          20
          21
          22
          23
          24
          25
          26
          27
          28
          29
          30
          31
          32
          33
          34
          35
          36
          37
          38
          39
          40
          41
          42
          43
          44
          45
          46
          47
          48
          49
          50
        </DataArray>
        <DataArray type="Float32" Name="v_l" format="ascii">
                      0.000000
                     -0.000000
                     -0.000000
                     -0.000000
                     -0.000000
                     -0.000000
                     -0.000000
                     -0.000000
                     -0.000000
                     -0.000000
                     -0.000000
                     -0.000000
                     -0.000000
                     -0.000000
                     -0.000000
                     -0.000000
                     -0.000000
                     -0.000000
                     -0.000000
                     -0.000000
                     -0.000000
                     -0.000000
                     -0.000000
                     -0.000000
                     -0.000001
                     -0.162595
                     -0.569920
                      0.321153
                      0.767769
                      0.456073
                      0.530855
                      0.746228
                      0.614117
                      0.549929
                      0.602407
                      0.516233
                      0.258916
                      0.406560
                      0.755581
                      1.078994
                      1.110742
                      1.141222
                      0.892371
                      0.515575
                      0.626498
                      0.798218
                      0.970125
                      1.070286
                      1.087640
                      0.912449
                      0.000000
        </DataArray>
        <DataArray type="Float32" Name="v_g" format="ascii">
                      0.000000
                      0.172410
                      0.172393
                      0.172387
                      0.172396
                      0.172399
                      0.172381
                      0.172374
                      0.172367
                      0.172367
                      0.172372
                      0.172369
                      0.172368
                      0.172369
                      0.172369
                      0.172369
                      0.172370
                      0.172370
                      0.172370
                      0.172371
                      0.172371
                      0.172371
                      0.172383
                      0.172372
                      0.172374
                      0.102993
                      0.000000
                      0.000000
                      0.000001
                      0.000001
                      0.000000
                      0.000001
                      0.000001
                      0.000001
                      0.000001
                      0.000001
                      0.000000
                      0.000000
                      0.000001
                      0.000002
                      0.000002
                      0.000002
                      0.000002
                      0.000000
                      0.000001
                      0.000001
                      0.000001
                      0.000002
                      0.000002
                      0.000002
                      0.000000
        </DataArray>
      </PointData>
    </Piece>
  </UnstructuredGrid>
</VTKFile>
