<VTKFile type="UnstructuredGrid" version="0.1" byte_order="LittleEndian">
  <UnstructuredGrid>
    <Piece NumberOfPoints="51" NumberOfCells="50">
      <Points>
        <DataArray type = "Float32" NumberOfComponents="3" format="ascii">
          0.000000 0 0
          0.040000 0 0
          0.080000 0 0
          0.120000 0 0
          0.160000 0 0
          0.200000 0 0
          0.240000 0 0
          0.280000 0 0
          0.320000 0 0
          0.360000 0 0
          0.400000 0 0
          0.440000 0 0
          0.480000 0 0
          0.520000 0 0
          0.560000 0 0
          0.600000 0 0
          0.640000 0 0
          0.680000 0 0
          0.720000 0 0
          0.760000 0 0
          0.800000 0 0
          0.840000 0 0
          0.880000 0 0
          0.920000 0 0
          0.960000 0 0
          1.000000 0 0
          1.040000 0 0
          1.080000 0 0
          1.120000 0 0
          1.160000 0 0
          1.200000 0 0
          1.240000 0 0
          1.280000 0 0
          1.320000 0 0
          1.360000 0 0
          1.400000 0 0
          1.440000 0 0
          1.480000 0 0
          1.520000 0 0
          1.560000 0 0
          1.600000 0 0
          1.640000 0 0
          1.680000 0 0
          1.720000 0 0
          1.760000 0 0
          1.800000 0 0
          1.840000 0 0
          1.880000 0 0
          1.920000 0 0
          1.960000 0 0
          2.000000 0 0
        </DataArray>
      </Points>
      <Cells>
        <DataArray type = "Int32" Name="connectivity" format="ascii">
          0 1
          1 2
          2 3
          3 4
          4 5
          5 6
          6 7
          7 8
          8 9
          9 10
          10 11
          11 12
          12 13
          13 14
          14 15
          15 16
          16 17
          17 18
          18 19
          19 20
          20 21
          21 22
          22 23
          23 24
          24 25
          25 26
          26 27
          27 28
          28 29
          29 30
          30 31
          31 32
          32 33
          33 34
          34 35
          35 36
          36 37
          37 38
          38 39
          39 40
          40 41
          41 42
          42 43
          43 44
          44 45
          45 46
          46 47
          47 48
          48 49
          49 50
        </DataArray>
        <DataArray type = "Int32" Name="offsets" format="ascii">
          2
          4
          6
          8
          10
          12
          14
          16
          18
          20
          22
          24
          26
          28
          30
          32
          34
          36
          38
          40
          42
          44
          46
          48
          50
          52
          54
          56
          58
          60
          62
          64
          66
          68
          70
          72
          74
          76
          78
          80
          82
          84
          86
          88
          90
          92
          94
          96
          98
          100
        </DataArray>
        <DataArray type = "UInt8" Name="types" format="ascii">
          3
          3
          3
          3
          3
          3
          3
          3
          3
          3
          3
          3
          3
          3
          3
          3
          3
          3
          3
          3
          3
          3
          3
          3
          3
          3
          3
          3
          3
          3
          3
          3
          3
          3
          3
          3
          3
          3
          3
          3
          3
          3
          3
          3
          3
          3
          3
          3
          3
          3
        </DataArray>
      </Cells>
      <CellData>
        <DataArray type="Float32" Name="alpha" format="ascii">
                      0.069379
                      0.215253
                      0.421242
                      0.470472
                      0.478429
                      0.480354
                      0.481524
                      0.482621
                      0.483724
                      0.484822
                      0.485909
                      0.486984
                      0.488044
                      0.489087
                      0.490110
                      0.491111
                      0.492087
                      0.493036
                      0.493955
                      0.494843
                      0.495700
                      0.496528
                      0.497333
                      0.498121
                      0.498888
                      0.499614
                      0.500345
                      0.501099
                      0.501875
                      0.502665
                      0.503469
                      0.504307
                      0.505188
                      0.506111
                      0.507076
                      0.508083
                      0.509132
                      0.510221
                      0.511347
                      0.512508
                      0.513700
                      0.514922
                      0.516159
                      0.517422
                      0.518943
                      0.520378
                      0.519735
                      0.521426
                      0.835899
                      0.978823
        </DataArray>
        <DataArray type="Float32" Name="p" format="ascii">
                 105636.288784
                 105297.578034
                 105024.087105
                 104806.935222
                 104601.909171
                 104398.688085
                 104195.643245
                 103992.546147
                 103789.349738
                 103586.026042
                 103382.541984
                 103178.862074
                 102974.950097
                 102770.769451
                 102566.283595
                 102361.456524
                 102156.253350
                 101950.640969
                 101744.588740
                 101538.069184
                 101331.058798
                 101123.539422
                 100915.499964
                 100706.937776
                 100497.857049
                 100288.264586
                 100078.179290
                  99867.638252
                  99656.686764
                  99445.364838
                  99233.775941
                  99021.971410
                  98810.037899
                  98598.073855
                  98386.185533
                  98174.487116
                  97963.100491
                  97752.154566
                  97541.784599
                  97332.131506
                  97123.341233
                  96915.563849
                  96708.950342
                  96503.653345
                  96299.867593
                  96097.779483
                  95897.184276
                  95697.335656
                  95550.628832
                  95524.888370
        </DataArray>
        <DataArray type="Float32" Name="rho_l" format="ascii">
                   1000.000564
                   1000.000530
                   1000.000502
                   1000.000481
                   1000.000460
                   1000.000440
                   1000.000420
                   1000.000399
                   1000.000379
                   1000.000359
                   1000.000338
                   1000.000318
                   1000.000297
                   1000.000277
                   1000.000257
                   1000.000236
                   1000.000216
                   1000.000195
                   1000.000174
                   1000.000154
                   1000.000133
                   1000.000112
                   1000.000092
                   1000.000071
                   1000.000050
                   1000.000029
                   1000.000008
                    999.999987
                    999.999966
                    999.999945
                    999.999923
                    999.999902
                    999.999881
                    999.999860
                    999.999839
                    999.999817
                    999.999796
                    999.999775
                    999.999754
                    999.999733
                    999.999712
                    999.999692
                    999.999671
                    999.999650
                    999.999630
                    999.999610
                    999.999590
                    999.999570
                    999.999555
                    999.999552
        </DataArray>
        <DataArray type="Float32" Name="rho_g" format="ascii">
                      0.556363
                      0.552976
                      0.550241
                      0.548069
                      0.546019
                      0.543987
                      0.541956
                      0.539925
                      0.537893
                      0.535860
                      0.533825
                      0.531789
                      0.529750
                      0.527708
                      0.525663
                      0.523615
                      0.521563
                      0.519506
                      0.517446
                      0.515381
                      0.513311
                      0.511235
                      0.509155
                      0.507069
                      0.504979
                      0.502883
                      0.500782
                      0.498676
                      0.496567
                      0.494454
                      0.492338
                      0.490220
                      0.488100
                      0.485981
                      0.483862
                      0.481745
                      0.479631
                      0.477522
                      0.475418
                      0.473321
                      0.471233
                      0.469156
                      0.467090
                      0.465037
                      0.462999
                      0.460978
                      0.458972
                      0.456973
                      0.455506
                      0.455249
        </DataArray>
      </CellData>
      <PointData>
        <DataArray type="Int32" Name="node_id" format="ascii">
          0
          1
          2
          3
          4
          5
          6
          7
          8
          9
          10
          11
          12
          13
          14
          15
          16
          17
          18
          19
          20
          21
          22
          23
          24
          25
          26
          27
          28
          29
          30
          31
          32
          33
          34
          35
          36
          37
          38
          39
          40
          41
          42
          43
          44
          45
          46
          47
          48
          49
          50
        </DataArray>
        <DataArray type="Float32" Name="v_l" format="ascii">
                      0.000000
                     -0.011917
                     -0.061110
                     -0.086615
                     -0.081278
                     -0.069980
                     -0.057860
                     -0.045706
                     -0.033683
                     -0.021829
                     -0.010176
                      0.001238
                      0.012374
                      0.023192
                      0.033652
                      0.043712
                      0.053333
                      0.062473
                      0.071089
                      0.079140
                      0.086584
                      0.093379
                      0.099480
                      0.104845
                      0.109433
                      0.113211
                      0.116140
                      0.118168
                      0.119257
                      0.119376
                      0.118519
                      0.116638
                      0.113712
                      0.109723
                      0.104660
                      0.098518
                      0.091295
                      0.082998
                      0.073639
                      0.063239
                      0.051824
                      0.039431
                      0.026104
                      0.011896
                     -0.003171
                     -0.019084
                     -0.035220
                     -0.051980
                     -0.138982
                     -0.426719
                      0.000000
        </DataArray>
        <DataArray type="Float32" Name="v_g" format="ascii">
                      0.000000
                      0.174779
                      0.149914
                      0.144679
                      0.155680
                      0.168170
                      0.180898
                      0.193606
                      0.206198
                      0.218640
                      0.230899
                      0.242938
                      0.254716
                      0.266193
                      0.277328
                      0.288078
                      0.298399
                      0.308249
                      0.317583
                      0.326356
                      0.334522
                      0.342037
                      0.348855
                      0.354930
                      0.360218
                      0.364677
                      0.368270
                      0.370947
                      0.372672
                      0.373413
                      0.373125
                      0.371796
                      0.369391
                      0.365887
                      0.361269
                      0.355526
                      0.348651
                      0.340646
                      0.331517
                      0.321280
                      0.309956
                      0.297576
                      0.284177
                      0.269810
                      0.254533
                      0.238333
                      0.221456
                      0.204498
                      0.188741
                      0.047289
                      0.000000
        </DataArray>
      </PointData>
    </Piece>
  </UnstructuredGrid>
</VTKFile>
