<VTKFile type="UnstructuredGrid" version="0.1" byte_order="LittleEndian">
  <UnstructuredGrid>
    <Piece NumberOfPoints="51" NumberOfCells="50">
      <Points>
        <DataArray type = "Float32" NumberOfComponents="3" format="ascii">
          0.000000 0 0
          0.040000 0 0
          0.080000 0 0
          0.120000 0 0
          0.160000 0 0
          0.200000 0 0
          0.240000 0 0
          0.280000 0 0
          0.320000 0 0
          0.360000 0 0
          0.400000 0 0
          0.440000 0 0
          0.480000 0 0
          0.520000 0 0
          0.560000 0 0
          0.600000 0 0
          0.640000 0 0
          0.680000 0 0
          0.720000 0 0
          0.760000 0 0
          0.800000 0 0
          0.840000 0 0
          0.880000 0 0
          0.920000 0 0
          0.960000 0 0
          1.000000 0 0
          1.040000 0 0
          1.080000 0 0
          1.120000 0 0
          1.160000 0 0
          1.200000 0 0
          1.240000 0 0
          1.280000 0 0
          1.320000 0 0
          1.360000 0 0
          1.400000 0 0
          1.440000 0 0
          1.480000 0 0
          1.520000 0 0
          1.560000 0 0
          1.600000 0 0
          1.640000 0 0
          1.680000 0 0
          1.720000 0 0
          1.760000 0 0
          1.800000 0 0
          1.840000 0 0
          1.880000 0 0
          1.920000 0 0
          1.960000 0 0
          2.000000 0 0
        </DataArray>
      </Points>
      <Cells>
        <DataArray type = "Int32" Name="connectivity" format="ascii">
          0 1
          1 2
          2 3
          3 4
          4 5
          5 6
          6 7
          7 8
          8 9
          9 10
          10 11
          11 12
          12 13
          13 14
          14 15
          15 16
          16 17
          17 18
          18 19
          19 20
          20 21
          21 22
          22 23
          23 24
          24 25
          25 26
          26 27
          27 28
          28 29
          29 30
          30 31
          31 32
          32 33
          33 34
          34 35
          35 36
          36 37
          37 38
          38 39
          39 40
          40 41
          41 42
          42 43
          43 44
          44 45
          45 46
          46 47
          47 48
          48 49
          49 50
        </DataArray>
        <DataArray type = "Int32" Name="offsets" format="ascii">
          2
          4
          6
          8
          10
          12
          14
          16
          18
          20
          22
          24
          26
          28
          30
          32
          34
          36
          38
          40
          42
          44
          46
          48
          50
          52
          54
          56
          58
          60
          62
          64
          66
          68
          70
          72
          74
          76
          78
          80
          82
          84
          86
          88
          90
          92
          94
          96
          98
          100
        </DataArray>
        <DataArray type = "UInt8" Name="types" format="ascii">
          3
          3
          3
          3
          3
          3
          3
          3
          3
          3
          3
          3
          3
          3
          3
          3
          3
          3
          3
          3
          3
          3
          3
          3
          3
          3
          3
          3
          3
          3
          3
          3
          3
          3
          3
          3
          3
          3
          3
          3
          3
          3
          3
          3
          3
          3
          3
          3
          3
          3
        </DataArray>
      </Cells>
      <CellData>
        <DataArray type="Float32" Name="alpha" format="ascii">
                      0.008270
                      0.025159
                      0.114222
                      0.351468
                      0.467665
                      0.489198
                      0.493230
                      0.494201
                      0.494662
                      0.495043
                      0.495417
                      0.495785
                      0.496144
                      0.496493
                      0.496831
                      0.497158
                      0.497474
                      0.497780
                      0.498075
                      0.498360
                      0.498636
                      0.498902
                      0.499161
                      0.499416
                      0.499666
                      0.499909
                      0.500148
                      0.500387
                      0.500628
                      0.500873
                      0.501122
                      0.501376
                      0.501637
                      0.501907
                      0.502186
                      0.502476
                      0.502777
                      0.503089
                      0.503414
                      0.503752
                      0.504102
                      0.504458
                      0.504836
                      0.505307
                      0.505519
                      0.503395
                      0.581005
                      0.967326
                      0.999974
                      0.999997
        </DataArray>
        <DataArray type="Float32" Name="p" format="ascii">
                 105239.660799
                 104896.109628
                 104570.155116
                 104294.996791
                 104085.367298
                 103902.465326
                 103724.533698
                 103547.541071
                 103370.782637
                 103194.142695
                 103017.603682
                 102841.163779
                 102664.821193
                 102488.573269
                 102312.417220
                 102136.350241
                 101960.369652
                 101784.472914
                 101608.657700
                 101432.921853
                 101257.263401
                 101081.680658
                 100906.172489
                 100730.738537
                 100555.379051
                 100380.094045
                 100204.883549
                 100029.748662
                  99854.691923
                  99679.716626
                  99504.826162
                  99330.024315
                  99155.315495
                  98980.704699
                  98806.197367
                  98631.799249
                  98457.516424
                  98283.355208
                  98109.322050
                  97935.423521
                  97761.666318
                  97588.056328
                  97414.598449
                  97241.314708
                  97068.191066
                  96894.435289
                  96729.876228
                  96604.739828
                  96601.409824
                  96601.224778
        </DataArray>
        <DataArray type="Float32" Name="rho_l" format="ascii">
                    889.795595
                    889.795388
                    889.795189
                    889.795037
                    889.794934
                    889.794849
                    889.794767
                    889.794685
                    889.794604
                    889.794523
                    889.794441
                    889.794360
                    889.794279
                    889.794198
                    889.794117
                    889.794036
                    889.793955
                    889.793875
                    889.793794
                    889.793713
                    889.793633
                    889.793552
                    889.793472
                    889.793391
                    889.793311
                    889.793230
                    889.793150
                    889.793070
                    889.792987
                    889.792905
                    889.792822
                    889.792739
                    889.792657
                    889.792574
                    889.792492
                    889.792410
                    889.792327
                    889.792245
                    889.792163
                    889.792081
                    889.792000
                    889.791918
                    889.791835
                    889.791752
                    889.791672
                    889.791614
                    889.791678
                    889.793043
                    890.341861
                    890.814683
        </DataArray>
        <DataArray type="Float32" Name="rho_g" format="ascii">
                      0.509791
                      0.507539
                      0.504073
                      0.501796
                      0.500695
                      0.499860
                      0.499149
                      0.498482
                      0.497803
                      0.497114
                      0.496424
                      0.495735
                      0.495046
                      0.494357
                      0.493667
                      0.492979
                      0.492290
                      0.491601
                      0.490912
                      0.490224
                      0.489534
                      0.488845
                      0.488157
                      0.487468
                      0.486779
                      0.486090
                      0.485401
                      0.484711
                      0.484026
                      0.483342
                      0.482658
                      0.481973
                      0.481289
                      0.480604
                      0.479920
                      0.479236
                      0.478552
                      0.477868
                      0.477184
                      0.476501
                      0.475817
                      0.475134
                      0.474452
                      0.473770
                      0.473088
                      0.472403
                      0.471749
                      0.471296
                      0.471366
                      0.471467
        </DataArray>
        <DataArray type="Float32" Name="T_l" format="ascii">
                    450.000830
                    450.000812
                    450.000798
                    450.000770
                    450.000737
                    450.000704
                    450.000671
                    450.000638
                    450.000605
                    450.000572
                    450.000540
                    450.000507
                    450.000474
                    450.000441
                    450.000408
                    450.000375
                    450.000343
                    450.000310
                    450.000277
                    450.000244
                    450.000211
                    450.000178
                    450.000145
                    450.000113
                    450.000080
                    450.000047
                    450.000014
                    449.999981
                    449.999949
                    449.999916
                    449.999883
                    449.999851
                    449.999818
                    449.999786
                    449.999753
                    449.999721
                    449.999688
                    449.999656
                    449.999623
                    449.999590
                    449.999558
                    449.999525
                    449.999494
                    449.999463
                    449.999429
                    449.999374
                    449.999210
                    449.997855
                    449.484377
                    449.042002
        </DataArray>
        <DataArray type="Float32" Name="T_g" format="ascii">
                    450.445751
                    450.934401
                    452.558858
                    453.377529
                    453.447702
                    453.399057
                    453.261505
                    453.088591
                    452.927059
                    452.774309
                    452.622775
                    452.470599
                    452.318030
                    452.165306
                    452.012485
                    451.859658
                    451.706707
                    451.553632
                    451.400429
                    451.247095
                    451.093629
                    450.940140
                    450.786577
                    450.632913
                    450.479140
                    450.325223
                    450.171247
                    450.017478
                    449.864077
                    449.710951
                    449.557890
                    449.404769
                    449.251527
                    449.098184
                    448.944794
                    448.791409
                    448.637984
                    448.484485
                    448.330907
                    448.177266
                    448.023561
                    447.869885
                    447.716209
                    447.562486
                    447.408675
                    447.253891
                    447.111763
                    446.963475
                    446.883297
                    446.790086
        </DataArray>
      </CellData>
      <PointData>
        <DataArray type="Int32" Name="node_id" format="ascii">
          0
          1
          2
          3
          4
          5
          6
          7
          8
          9
          10
          11
          12
          13
          14
          15
          16
          17
          18
          19
          20
          21
          22
          23
          24
          25
          26
          27
          28
          29
          30
          31
          32
          33
          34
          35
          36
          37
          38
          39
          40
          41
          42
          43
          44
          45
          46
          47
          48
          49
          50
        </DataArray>
        <DataArray type="Float32" Name="v_l" format="ascii">
                      0.000000
                     -0.001451
                     -0.006400
                     -0.037738
                     -0.098443
                     -0.115195
                     -0.118398
                     -0.118907
                     -0.118951
                     -0.118915
                     -0.118871
                     -0.118831
                     -0.118793
                     -0.118757
                     -0.118722
                     -0.118690
                     -0.118662
                     -0.118637
                     -0.118616
                     -0.118601
                     -0.118592
                     -0.118588
                     -0.118592
                     -0.118605
                     -0.118627
                     -0.118657
                     -0.118697
                     -0.118748
                     -0.118811
                     -0.118886
                     -0.118975
                     -0.119077
                     -0.119192
                     -0.119322
                     -0.119467
                     -0.119626
                     -0.119800
                     -0.119988
                     -0.120191
                     -0.120408
                     -0.120639
                     -0.120881
                     -0.121136
                     -0.121433
                     -0.121696
                     -0.121585
                     -0.132406
                     -0.419856
                     -0.983876
                     -0.855375
                      0.000000
        </DataArray>
        <DataArray type="Float32" Name="v_g" format="ascii">
                      0.000000
                      0.172429
                      0.172610
                      0.161688
                      0.127675
                      0.123873
                      0.123317
                      0.123358
                      0.123498
                      0.123655
                      0.123810
                      0.123961
                      0.124107
                      0.124249
                      0.124386
                      0.124517
                      0.124642
                      0.124760
                      0.124869
                      0.124970
                      0.125063
                      0.125145
                      0.125217
                      0.125279
                      0.125328
                      0.125366
                      0.125392
                      0.125406
                      0.125406
                      0.125393
                      0.125366
                      0.125325
                      0.125271
                      0.125203
                      0.125121
                      0.125025
                      0.124916
                      0.124793
                      0.124657
                      0.124509
                      0.124348
                      0.124176
                      0.123996
                      0.123786
                      0.123580
                      0.123664
                      0.125923
                      0.036469
                      0.001244
                      0.000599
                      0.000000
        </DataArray>
      </PointData>
    </Piece>
  </UnstructuredGrid>
</VTKFile>
