<VTKFile type="UnstructuredGrid" version="0.1" byte_order="LittleEndian">
  <UnstructuredGrid>
    <Piece NumberOfPoints="51" NumberOfCells="50">
      <Points>
        <DataArray type = "Float32" NumberOfComponents="3" format="ascii">
          0.000000 0 0
          0.040000 0 0
          0.080000 0 0
          0.120000 0 0
          0.160000 0 0
          0.200000 0 0
          0.240000 0 0
          0.280000 0 0
          0.320000 0 0
          0.360000 0 0
          0.400000 0 0
          0.440000 0 0
          0.480000 0 0
          0.520000 0 0
          0.560000 0 0
          0.600000 0 0
          0.640000 0 0
          0.680000 0 0
          0.720000 0 0
          0.760000 0 0
          0.800000 0 0
          0.840000 0 0
          0.880000 0 0
          0.920000 0 0
          0.960000 0 0
          1.000000 0 0
          1.040000 0 0
          1.080000 0 0
          1.120000 0 0
          1.160000 0 0
          1.200000 0 0
          1.240000 0 0
          1.280000 0 0
          1.320000 0 0
          1.360000 0 0
          1.400000 0 0
          1.440000 0 0
          1.480000 0 0
          1.520000 0 0
          1.560000 0 0
          1.600000 0 0
          1.640000 0 0
          1.680000 0 0
          1.720000 0 0
          1.760000 0 0
          1.800000 0 0
          1.840000 0 0
          1.880000 0 0
          1.920000 0 0
          1.960000 0 0
          2.000000 0 0
        </DataArray>
      </Points>
      <Cells>
        <DataArray type = "Int32" Name="connectivity" format="ascii">
          0 1
          1 2
          2 3
          3 4
          4 5
          5 6
          6 7
          7 8
          8 9
          9 10
          10 11
          11 12
          12 13
          13 14
          14 15
          15 16
          16 17
          17 18
          18 19
          19 20
          20 21
          21 22
          22 23
          23 24
          24 25
          25 26
          26 27
          27 28
          28 29
          29 30
          30 31
          31 32
          32 33
          33 34
          34 35
          35 36
          36 37
          37 38
          38 39
          39 40
          40 41
          41 42
          42 43
          43 44
          44 45
          45 46
          46 47
          47 48
          48 49
          49 50
        </DataArray>
        <DataArray type = "Int32" Name="offsets" format="ascii">
          2
          4
          6
          8
          10
          12
          14
          16
          18
          20
          22
          24
          26
          28
          30
          32
          34
          36
          38
          40
          42
          44
          46
          48
          50
          52
          54
          56
          58
          60
          62
          64
          66
          68
          70
          72
          74
          76
          78
          80
          82
          84
          86
          88
          90
          92
          94
          96
          98
          100
        </DataArray>
        <DataArray type = "UInt8" Name="types" format="ascii">
          3
          3
          3
          3
          3
          3
          3
          3
          3
          3
          3
          3
          3
          3
          3
          3
          3
          3
          3
          3
          3
          3
          3
          3
          3
          3
          3
          3
          3
          3
          3
          3
          3
          3
          3
          3
          3
          3
          3
          3
          3
          3
          3
          3
          3
          3
          3
          3
          3
          3
        </DataArray>
      </Cells>
      <CellData>
        <DataArray type="Float32" Name="alpha" format="ascii">
                      0.000000
                      0.000000
                      0.000000
                      0.000000
                      0.000000
                      0.000000
                      0.000000
                      0.000000
                      0.000000
                      0.000000
                      0.000000
                      0.000000
                      0.000000
                      0.000000
                      0.000000
                      0.000000
                      0.000000
                      0.000000
                      0.000000
                      0.000000
                      0.000000
                      0.000000
                      0.000000
                      0.000002
                      0.000073
                      0.999986
                      1.000000
                      1.000000
                      1.000000
                      1.000000
                      1.000000
                      1.000000
                      1.000000
                      1.000000
                      1.000000
                      1.000000
                      1.000000
                      1.000000
                      1.000000
                      1.000000
                      1.000000
                      1.000000
                      1.000000
                      1.000000
                      1.000000
                      1.000000
                      1.000000
                      1.000000
                      1.000000
                      1.000000
        </DataArray>
        <DataArray type="Float32" Name="p" format="ascii">
                 108602.669752
                 108253.513329
                 107904.356993
                 107555.200745
                 107206.044584
                 106856.888506
                 106507.732508
                 106158.576587
                 105809.420740
                 105460.264964
                 105111.109256
                 104761.953613
                 104412.798032
                 104063.642512
                 103714.487048
                 103365.331639
                 103016.176282
                 102667.020975
                 102317.865713
                 101968.710493
                 101619.555309
                 101270.400161
                 100921.245085
                 100572.090369
                 100222.948050
                  99999.076756
                  99998.885910
                  99998.695086
                  99998.504349
                  99998.313688
                  99998.123102
                  99997.932593
                  99997.742165
                  99997.551817
                  99997.361548
                  99997.171356
                  99996.981239
                  99996.791193
                  99996.601215
                  99996.411298
                  99996.221437
                  99996.031623
                  99995.841848
                  99995.652101
                  99995.462368
                  99995.272635
                  99995.082885
                  99994.893096
                  99994.703249
                  99994.513347
        </DataArray>
        <DataArray type="Float32" Name="rho_l" format="ascii">
                    889.797313
                    889.797101
                    889.796877
                    889.796657
                    889.796446
                    889.796243
                    889.796049
                    889.795864
                    889.795687
                    889.795519
                    889.795359
                    889.795206
                    889.795062
                    889.794925
                    889.794795
                    889.794672
                    889.794556
                    889.794447
                    889.794345
                    889.794249
                    889.794160
                    889.794069
                    889.793982
                    889.793962
                    889.794460
                    890.773430
                    891.557484
                    891.337958
                    891.137335
                    890.966634
                    890.780320
                    890.583133
                    890.387282
                    890.193059
                    890.001525
                    889.814806
                    889.634043
                    889.462458
                    889.302703
                    889.157204
                    889.029152
                    888.922202
                    888.840087
                    888.786983
                    888.769224
                    888.789551
                    888.856706
                    888.980787
                    889.147473
                    889.257589
        </DataArray>
        <DataArray type="Float32" Name="rho_g" format="ascii">
                      0.526822
                      0.525107
                      0.523393
                      0.521679
                      0.519964
                      0.518250
                      0.516536
                      0.514821
                      0.513107
                      0.511393
                      0.509678
                      0.507964
                      0.506250
                      0.504536
                      0.502821
                      0.501107
                      0.499393
                      0.497679
                      0.495965
                      0.494250
                      0.492536
                      0.490822
                      0.489108
                      0.487394
                      0.485680
                      0.486211
                      0.486416
                      0.486186
                      0.485974
                      0.485795
                      0.485599
                      0.485394
                      0.485190
                      0.484987
                      0.484788
                      0.484593
                      0.484406
                      0.484229
                      0.484064
                      0.483913
                      0.483781
                      0.483670
                      0.483584
                      0.483529
                      0.483510
                      0.483530
                      0.483598
                      0.483724
                      0.483895
                      0.484007
        </DataArray>
        <DataArray type="Float32" Name="T_l" format="ascii">
                    450.001297
                    450.001279
                    450.001274
                    450.001264
                    450.001247
                    450.001221
                    450.001187
                    450.001145
                    450.001095
                    450.001037
                    450.000972
                    450.000899
                    450.000819
                    450.000732
                    450.000638
                    450.000538
                    450.000432
                    450.000319
                    450.000200
                    450.000074
                    449.999942
                    449.999812
                    449.999678
                    449.999481
                    449.998799
                    449.082697
                    448.345967
                    448.552355
                    448.740970
                    448.901455
                    449.076250
                    449.260746
                    449.443992
                    449.625715
                    449.804922
                    449.979623
                    450.148043
                    450.307818
                    450.456577
                    450.592062
                    450.711300
                    450.810889
                    450.887353
                    450.936802
                    450.953338
                    450.934410
                    450.871877
                    450.756336
                    450.601122
                    450.498585
        </DataArray>
        <DataArray type="Float32" Name="T_g" format="ascii">
                    450.001297
                    450.001279
                    450.001274
                    450.001264
                    450.001246
                    450.001221
                    450.001187
                    450.001145
                    450.001095
                    450.001037
                    450.000971
                    450.000899
                    450.000819
                    450.000732
                    450.000638
                    450.000538
                    450.000431
                    450.000318
                    450.000199
                    450.000073
                    449.999941
                    449.999811
                    449.999674
                    449.999454
                    449.998661
                    448.531635
                    448.345967
                    448.552355
                    448.740970
                    448.901454
                    449.076250
                    449.260745
                    449.443991
                    449.625714
                    449.804921
                    449.979623
                    450.148043
                    450.307818
                    450.456577
                    450.592062
                    450.711300
                    450.810889
                    450.887353
                    450.936802
                    450.953338
                    450.934410
                    450.871877
                    450.756336
                    450.601122
                    450.498585
        </DataArray>
      </CellData>
      <PointData>
        <DataArray type="Int32" Name="node_id" format="ascii">
          0
          1
          2
          3
          4
          5
          6
          7
          8
          9
          10
          11
          12
          13
          14
          15
          16
          17
          18
          19
          20
          21
          22
          23
          24
          25
          26
          27
          28
          29
          30
          31
          32
          33
          34
          35
          36
          37
          38
          39
          40
          41
          42
          43
          44
          45
          46
          47
          48
          49
          50
        </DataArray>
        <DataArray type="Float32" Name="v_l" format="ascii">
                      0.000000
                     -0.000000
                     -0.000000
                     -0.000000
                     -0.000000
                     -0.000000
                     -0.000000
                     -0.000000
                     -0.000000
                     -0.000000
                     -0.000000
                     -0.000000
                     -0.000000
                     -0.000000
                     -0.000000
                     -0.000000
                     -0.000000
                     -0.000000
                     -0.000000
                     -0.000000
                     -0.000000
                     -0.000000
                     -0.000000
                     -0.000000
                     -0.000001
                     -0.231309
                     -0.625820
                     -0.004253
                     -0.013718
                     -0.030662
                     -0.049136
                     -0.060866
                     -0.063773
                     -0.061671
                     -0.058156
                     -0.054573
                     -0.051160
                     -0.047903
                     -0.044759
                     -0.041694
                     -0.038684
                     -0.035704
                     -0.032713
                     -0.029677
                     -0.026572
                     -0.023383
                     -0.020103
                     -0.016717
                     -0.013184
                     -0.009422
                      0.000000
        </DataArray>
        <DataArray type="Float32" Name="v_g" format="ascii">
                      0.000000
                      0.010863
                      0.014020
                      0.017550
                      0.021158
                      0.024788
                      0.028431
                      0.032084
                      0.035745
                      0.039411
                      0.043077
                      0.046738
                      0.050387
                      0.054021
                      0.057643
                      0.061274
                      0.064909
                      0.068317
                      0.070853
                      0.072017
                      0.072176
                      0.073154
                      0.092456
                      0.172367
                      0.172372
                      0.044563
                      0.000005
                      0.000005
                      0.000005
                      0.000004
                      0.000004
                      0.000004
                      0.000004
                      0.000004
                      0.000003
                      0.000003
                      0.000003
                      0.000003
                      0.000003
                      0.000002
                      0.000002
                      0.000002
                      0.000002
                      0.000001
                      0.000001
                      0.000001
                      0.000001
                      0.000001
                      0.000000
                      0.000000
                      0.000000
        </DataArray>
      </PointData>
    </Piece>
  </UnstructuredGrid>
</VTKFile>
