<VTKFile type="UnstructuredGrid" version="0.1" byte_order="LittleEndian">
  <UnstructuredGrid>
    <Piece NumberOfPoints="97" NumberOfCells="96">
      <Points>
        <DataArray type = "Float32" NumberOfComponents="3" format="ascii">
          0.000000 0 0
          0.010417 0 0
          0.020833 0 0
          0.031250 0 0
          0.041667 0 0
          0.052083 0 0
          0.062500 0 0
          0.072917 0 0
          0.083333 0 0
          0.093750 0 0
          0.104167 0 0
          0.114583 0 0
          0.125000 0 0
          0.135417 0 0
          0.145833 0 0
          0.156250 0 0
          0.166667 0 0
          0.177083 0 0
          0.187500 0 0
          0.197917 0 0
          0.208333 0 0
          0.218750 0 0
          0.229167 0 0
          0.239583 0 0
          0.250000 0 0
          0.260417 0 0
          0.270833 0 0
          0.281250 0 0
          0.291667 0 0
          0.302083 0 0
          0.312500 0 0
          0.322917 0 0
          0.333333 0 0
          0.343750 0 0
          0.354167 0 0
          0.364583 0 0
          0.375000 0 0
          0.385417 0 0
          0.395833 0 0
          0.406250 0 0
          0.416667 0 0
          0.427083 0 0
          0.437500 0 0
          0.447917 0 0
          0.458333 0 0
          0.468750 0 0
          0.479167 0 0
          0.489583 0 0
          0.500000 0 0
          0.510417 0 0
          0.520833 0 0
          0.531250 0 0
          0.541667 0 0
          0.552083 0 0
          0.562500 0 0
          0.572917 0 0
          0.583333 0 0
          0.593750 0 0
          0.604167 0 0
          0.614583 0 0
          0.625000 0 0
          0.635417 0 0
          0.645833 0 0
          0.656250 0 0
          0.666667 0 0
          0.677083 0 0
          0.687500 0 0
          0.697917 0 0
          0.708333 0 0
          0.718750 0 0
          0.729167 0 0
          0.739583 0 0
          0.750000 0 0
          0.760417 0 0
          0.770833 0 0
          0.781250 0 0
          0.791667 0 0
          0.802083 0 0
          0.812500 0 0
          0.822917 0 0
          0.833333 0 0
          0.843750 0 0
          0.854167 0 0
          0.864583 0 0
          0.875000 0 0
          0.885417 0 0
          0.895833 0 0
          0.906250 0 0
          0.916667 0 0
          0.927083 0 0
          0.937500 0 0
          0.947917 0 0
          0.958333 0 0
          0.968750 0 0
          0.979167 0 0
          0.989583 0 0
          1.000000 0 0
        </DataArray>
      </Points>
      <Cells>
        <DataArray type = "Int32" Name="connectivity" format="ascii">
          0 1
          1 2
          2 3
          3 4
          4 5
          5 6
          6 7
          7 8
          8 9
          9 10
          10 11
          11 12
          12 13
          13 14
          14 15
          15 16
          16 17
          17 18
          18 19
          19 20
          20 21
          21 22
          22 23
          23 24
          24 25
          25 26
          26 27
          27 28
          28 29
          29 30
          30 31
          31 32
          32 33
          33 34
          34 35
          35 36
          36 37
          37 38
          38 39
          39 40
          40 41
          41 42
          42 43
          43 44
          44 45
          45 46
          46 47
          47 48
          48 49
          49 50
          50 51
          51 52
          52 53
          53 54
          54 55
          55 56
          56 57
          57 58
          58 59
          59 60
          60 61
          61 62
          62 63
          63 64
          64 65
          65 66
          66 67
          67 68
          68 69
          69 70
          70 71
          71 72
          72 73
          73 74
          74 75
          75 76
          76 77
          77 78
          78 79
          79 80
          80 81
          81 82
          82 83
          83 84
          84 85
          85 86
          86 87
          87 88
          88 89
          89 90
          90 91
          91 92
          92 93
          93 94
          94 95
          95 96
        </DataArray>
        <DataArray type = "Int32" Name="offsets" format="ascii">
          2
          4
          6
          8
          10
          12
          14
          16
          18
          20
          22
          24
          26
          28
          30
          32
          34
          36
          38
          40
          42
          44
          46
          48
          50
          52
          54
          56
          58
          60
          62
          64
          66
          68
          70
          72
          74
          76
          78
          80
          82
          84
          86
          88
          90
          92
          94
          96
          98
          100
          102
          104
          106
          108
          110
          112
          114
          116
          118
          120
          122
          124
          126
          128
          130
          132
          134
          136
          138
          140
          142
          144
          146
          148
          150
          152
          154
          156
          158
          160
          162
          164
          166
          168
          170
          172
          174
          176
          178
          180
          182
          184
          186
          188
          190
          192
        </DataArray>
        <DataArray type = "UInt8" Name="types" format="ascii">
          3
          3
          3
          3
          3
          3
          3
          3
          3
          3
          3
          3
          3
          3
          3
          3
          3
          3
          3
          3
          3
          3
          3
          3
          3
          3
          3
          3
          3
          3
          3
          3
          3
          3
          3
          3
          3
          3
          3
          3
          3
          3
          3
          3
          3
          3
          3
          3
          3
          3
          3
          3
          3
          3
          3
          3
          3
          3
          3
          3
          3
          3
          3
          3
          3
          3
          3
          3
          3
          3
          3
          3
          3
          3
          3
          3
          3
          3
          3
          3
          3
          3
          3
          3
          3
          3
          3
          3
          3
          3
          3
          3
          3
          3
          3
          3
        </DataArray>
      </Cells>
      <CellData>
        <DataArray type="Float32" Name="alpha" format="ascii">
                      0.457061
                      0.469809
                      0.482685
                      0.495636
                      0.508606
                      0.521538
                      0.534379
                      0.547072
                      0.559564
                      0.571800
                      0.583729
                      0.595300
                      0.606462
                      0.617169
                      0.627374
                      0.637033
                      0.646106
                      0.654553
                      0.662338
                      0.669428
                      0.675793
                      0.681404
                      0.686239
                      0.690277
                      0.693499
                      0.695893
                      0.697449
                      0.698158
                      0.698019
                      0.697033
                      0.695202
                      0.692536
                      0.689045
                      0.684744
                      0.679653
                      0.673792
                      0.667187
                      0.659866
                      0.651861
                      0.643205
                      0.633936
                      0.624093
                      0.613719
                      0.602858
                      0.591557
                      0.579864
                      0.567828
                      0.555502
                      0.542939
                      0.530191
                      0.517315
                      0.504364
                      0.491394
                      0.478462
                      0.465621
                      0.452928
                      0.440436
                      0.428200
                      0.416271
                      0.404700
                      0.393538
                      0.382831
                      0.372626
                      0.362967
                      0.353894
                      0.345447
                      0.337662
                      0.330572
                      0.324207
                      0.318596
                      0.313761
                      0.309723
                      0.306501
                      0.304107
                      0.302551
                      0.301842
                      0.301981
                      0.302967
                      0.304798
                      0.307464
                      0.310955
                      0.315256
                      0.320347
                      0.326208
                      0.332813
                      0.340134
                      0.348139
                      0.356795
                      0.366064
                      0.375907
                      0.386281
                      0.397142
                      0.408443
                      0.420136
                      0.432172
                      0.444498
        </DataArray>
        <DataArray type="Float32" Name="p" format="ascii">
                 100000.000000
                 100000.000000
                 100000.000000
                 100000.000000
                 100000.000000
                 100000.000000
                 100000.000000
                 100000.000000
                 100000.000000
                 100000.000000
                 100000.000000
                 100000.000000
                 100000.000000
                 100000.000000
                 100000.000000
                 100000.000000
                 100000.000000
                 100000.000000
                 100000.000000
                 100000.000000
                 100000.000000
                 100000.000000
                 100000.000000
                 100000.000000
                 100000.000000
                 100000.000000
                 100000.000000
                 100000.000000
                 100000.000000
                 100000.000000
                 100000.000000
                 100000.000000
                 100000.000000
                 100000.000000
                 100000.000000
                 100000.000000
                 100000.000000
                 100000.000000
                 100000.000000
                 100000.000000
                 100000.000000
                 100000.000000
                 100000.000000
                 100000.000000
                 100000.000000
                 100000.000000
                 100000.000000
                 100000.000000
                 100000.000000
                 100000.000000
                 100000.000000
                 100000.000000
                 100000.000000
                 100000.000000
                 100000.000000
                 100000.000000
                 100000.000000
                 100000.000000
                 100000.000000
                 100000.000000
                 100000.000000
                 100000.000000
                 100000.000000
                 100000.000000
                 100000.000000
                 100000.000000
                 100000.000000
                 100000.000000
                 100000.000000
                 100000.000000
                 100000.000000
                 100000.000000
                 100000.000000
                 100000.000000
                 100000.000000
                 100000.000000
                 100000.000000
                 100000.000000
                 100000.000000
                 100000.000000
                 100000.000000
                 100000.000000
                 100000.000000
                 100000.000000
                 100000.000000
                 100000.000000
                 100000.000000
                 100000.000000
                 100000.000000
                 100000.000000
                 100000.000000
                 100000.000000
                 100000.000000
                 100000.000000
                 100000.000000
                 100000.000000
        </DataArray>
        <DataArray type="Float32" Name="rho_l" format="ascii">
                   1000.000000
                   1000.000000
                   1000.000000
                   1000.000000
                   1000.000000
                   1000.000000
                   1000.000000
                   1000.000000
                   1000.000000
                   1000.000000
                   1000.000000
                   1000.000000
                   1000.000000
                   1000.000000
                   1000.000000
                   1000.000000
                   1000.000000
                   1000.000000
                   1000.000000
                   1000.000000
                   1000.000000
                   1000.000000
                   1000.000000
                   1000.000000
                   1000.000000
                   1000.000000
                   1000.000000
                   1000.000000
                   1000.000000
                   1000.000000
                   1000.000000
                   1000.000000
                   1000.000000
                   1000.000000
                   1000.000000
                   1000.000000
                   1000.000000
                   1000.000000
                   1000.000000
                   1000.000000
                   1000.000000
                   1000.000000
                   1000.000000
                   1000.000000
                   1000.000000
                   1000.000000
                   1000.000000
                   1000.000000
                   1000.000000
                   1000.000000
                   1000.000000
                   1000.000000
                   1000.000000
                   1000.000000
                   1000.000000
                   1000.000000
                   1000.000000
                   1000.000000
                   1000.000000
                   1000.000000
                   1000.000000
                   1000.000000
                   1000.000000
                   1000.000000
                   1000.000000
                   1000.000000
                   1000.000000
                   1000.000000
                   1000.000000
                   1000.000000
                   1000.000000
                   1000.000000
                   1000.000000
                   1000.000000
                   1000.000000
                   1000.000000
                   1000.000000
                   1000.000000
                   1000.000000
                   1000.000000
                   1000.000000
                   1000.000000
                   1000.000000
                   1000.000000
                   1000.000000
                   1000.000000
                   1000.000000
                   1000.000000
                   1000.000000
                   1000.000000
                   1000.000000
                   1000.000000
                   1000.000000
                   1000.000000
                   1000.000000
                   1000.000000
        </DataArray>
        <DataArray type="Float32" Name="rho_g" format="ascii">
                      0.500000
                      0.500000
                      0.500000
                      0.500000
                      0.500000
                      0.500000
                      0.500000
                      0.500000
                      0.500000
                      0.500000
                      0.500000
                      0.500000
                      0.500000
                      0.500000
                      0.500000
                      0.500000
                      0.500000
                      0.500000
                      0.500000
                      0.500000
                      0.500000
                      0.500000
                      0.500000
                      0.500000
                      0.500000
                      0.500000
                      0.500000
                      0.500000
                      0.500000
                      0.500000
                      0.500000
                      0.500000
                      0.500000
                      0.500000
                      0.500000
                      0.500000
                      0.500000
                      0.500000
                      0.500000
                      0.500000
                      0.500000
                      0.500000
                      0.500000
                      0.500000
                      0.500000
                      0.500000
                      0.500000
                      0.500000
                      0.500000
                      0.500000
                      0.500000
                      0.500000
                      0.500000
                      0.500000
                      0.500000
                      0.500000
                      0.500000
                      0.500000
                      0.500000
                      0.500000
                      0.500000
                      0.500000
                      0.500000
                      0.500000
                      0.500000
                      0.500000
                      0.500000
                      0.500000
                      0.500000
                      0.500000
                      0.500000
                      0.500000
                      0.500000
                      0.500000
                      0.500000
                      0.500000
                      0.500000
                      0.500000
                      0.500000
                      0.500000
                      0.500000
                      0.500000
                      0.500000
                      0.500000
                      0.500000
                      0.500000
                      0.500000
                      0.500000
                      0.500000
                      0.500000
                      0.500000
                      0.500000
                      0.500000
                      0.500000
                      0.500000
                      0.500000
        </DataArray>
        <DataArray type="Float32" Name="alpha_ana" format="ascii">
                      0.456627
                      0.469489
                      0.482482
                      0.495550
                      0.508637
                      0.521687
                      0.534644
                      0.547452
                      0.560058
                      0.572406
                      0.584445
                      0.596121
                      0.607386
                      0.618192
                      0.628491
                      0.638240
                      0.647396
                      0.655922
                      0.663780
                      0.670937
                      0.677362
                      0.683027
                      0.687909
                      0.691986
                      0.695240
                      0.697659
                      0.699231
                      0.699950
                      0.699813
                      0.698821
                      0.696977
                      0.694289
                      0.690770
                      0.686433
                      0.681298
                      0.675387
                      0.668725
                      0.661341
                      0.653265
                      0.644533
                      0.635182
                      0.625253
                      0.614787
                      0.603829
                      0.592427
                      0.580629
                      0.568486
                      0.556050
                      0.543373
                      0.530511
                      0.517518
                      0.504450
                      0.491363
                      0.478313
                      0.465356
                      0.452548
                      0.439942
                      0.427594
                      0.415555
                      0.403879
                      0.392614
                      0.381808
                      0.371509
                      0.361760
                      0.352604
                      0.344078
                      0.336220
                      0.329063
                      0.322638
                      0.316973
                      0.312091
                      0.308014
                      0.304760
                      0.302341
                      0.300769
                      0.300050
                      0.300187
                      0.301179
                      0.303023
                      0.305711
                      0.309230
                      0.313567
                      0.318702
                      0.324613
                      0.331275
                      0.338659
                      0.346735
                      0.355467
                      0.364818
                      0.374747
                      0.385213
                      0.396171
                      0.407573
                      0.419371
                      0.431514
                      0.443950
        </DataArray>
      </CellData>
      <PointData>
        <DataArray type="Int32" Name="node_id" format="ascii">
          0
          1
          2
          3
          4
          5
          6
          7
          8
          9
          10
          11
          12
          13
          14
          15
          16
          17
          18
          19
          20
          21
          22
          23
          24
          25
          26
          27
          28
          29
          30
          31
          32
          33
          34
          35
          36
          37
          38
          39
          40
          41
          42
          43
          44
          45
          46
          47
          48
          49
          50
          51
          52
          53
          54
          55
          56
          57
          58
          59
          60
          61
          62
          63
          64
          65
          66
          67
          68
          69
          70
          71
          72
          73
          74
          75
          76
          77
          78
          79
          80
          81
          82
          83
          84
          85
          86
          87
          88
          89
          90
          91
          92
          93
          94
          95
          96
        </DataArray>
        <DataArray type="Float32" Name="v_l" format="ascii">
                      1.000000
                      1.000000
                      1.000000
                      1.000000
                      1.000000
                      1.000000
                      1.000000
                      1.000000
                      1.000000
                      1.000000
                      1.000000
                      1.000000
                      1.000000
                      1.000000
                      1.000000
                      1.000000
                      1.000000
                      1.000000
                      1.000000
                      1.000000
                      1.000000
                      1.000000
                      1.000000
                      1.000000
                      1.000000
                      1.000000
                      1.000000
                      1.000000
                      1.000000
                      1.000000
                      1.000000
                      1.000000
                      1.000000
                      1.000000
                      1.000000
                      1.000000
                      1.000000
                      1.000000
                      1.000000
                      1.000000
                      1.000000
                      1.000000
                      1.000000
                      1.000000
                      1.000000
                      1.000000
                      1.000000
                      1.000000
                      1.000000
                      1.000000
                      1.000000
                      1.000000
                      1.000000
                      1.000000
                      1.000000
                      1.000000
                      1.000000
                      1.000000
                      1.000000
                      1.000000
                      1.000000
                      1.000000
                      1.000000
                      1.000000
                      1.000000
                      1.000000
                      1.000000
                      1.000000
                      1.000000
                      1.000000
                      1.000000
                      1.000000
                      1.000000
                      1.000000
                      1.000000
                      1.000000
                      1.000000
                      1.000000
                      1.000000
                      1.000000
                      1.000000
                      1.000000
                      1.000000
                      1.000000
                      1.000000
                      1.000000
                      1.000000
                      1.000000
                      1.000000
                      1.000000
                      1.000000
                      1.000000
                      1.000000
                      1.000000
                      1.000000
                      1.000000
                      1.000000
        </DataArray>
        <DataArray type="Float32" Name="v_g" format="ascii">
                      1.000000
                      1.000000
                      1.000000
                      1.000000
                      1.000000
                      1.000000
                      1.000000
                      1.000000
                      1.000000
                      1.000000
                      1.000000
                      1.000000
                      1.000000
                      1.000000
                      1.000000
                      1.000000
                      1.000000
                      1.000000
                      1.000000
                      1.000000
                      1.000000
                      1.000000
                      1.000000
                      1.000000
                      1.000000
                      1.000000
                      1.000000
                      1.000000
                      1.000000
                      1.000000
                      1.000000
                      1.000000
                      1.000000
                      1.000000
                      1.000000
                      1.000000
                      1.000000
                      1.000000
                      1.000000
                      1.000000
                      1.000000
                      1.000000
                      1.000000
                      1.000000
                      1.000000
                      1.000000
                      1.000000
                      1.000000
                      1.000000
                      1.000000
                      1.000000
                      1.000000
                      1.000000
                      1.000000
                      1.000000
                      1.000000
                      1.000000
                      1.000000
                      1.000000
                      1.000000
                      1.000000
                      1.000000
                      1.000000
                      1.000000
                      1.000000
                      1.000000
                      1.000000
                      1.000000
                      1.000000
                      1.000000
                      1.000000
                      1.000000
                      1.000000
                      1.000000
                      1.000000
                      1.000000
                      1.000000
                      1.000000
                      1.000000
                      1.000000
                      1.000000
                      1.000000
                      1.000000
                      1.000000
                      1.000000
                      1.000000
                      1.000000
                      1.000000
                      1.000000
                      1.000000
                      1.000000
                      1.000000
                      1.000000
                      1.000000
                      1.000000
                      1.000000
                      1.000000
        </DataArray>
      </PointData>
    </Piece>
  </UnstructuredGrid>
</VTKFile>
