# vtk DataFile Version 4.0
my data
ASCII
DATASET STRUCTURED_GRID
DIMENSIONS 11 1 1
POINTS 11 Float32
0.000000 0 0
0.100000 0 0
0.200000 0 0
0.300000 0 0
0.400000 0 0
0.500000 0 0
0.600000 0 0
0.700000 0 0
0.800000 0 0
0.900000 0 0
1.000000 0 0
POINT_DATA 11
SCALARS node_id Float32 1
LOOKUP_TABLE node_id
0
1
2
3
4
5
6
7
8
9
10
SCALARS v_l Float32 1
LOOKUP_TABLE v
1.000000
1.000343
1.000680
1.001013
1.001341
1.001665
1.001984
1.002298
1.002608
1.002913
1.003214
CELL_DATA 10
SCALARS alpha Float32 1
LOOKUP_TABLE p
100478.890985
100428.531255
100378.159478
100327.775840
100277.380500
100226.973623
100176.555384
100126.125981
100075.685635
100025.234587
SCALARS p_l Float32 1
LOOKUP_TABLE T
300.373285
301.111142
301.838102
302.553725
303.258276
303.952468
304.637355
305.314123
305.984304
306.647984
