<VTKFile type="UnstructuredGrid" version="0.1" byte_order="LittleEndian">
  <UnstructuredGrid>
    <Piece NumberOfPoints="11" NumberOfCells="10">
      <Points>
        <DataArray type = "Float32" NumberOfComponents="3" format="ascii">
          0.000000 0 0
          0.100000 0 0
          0.200000 0 0
          0.300000 0 0
          0.400000 0 0
          0.500000 0 0
          0.600000 0 0
          0.700000 0 0
          0.800000 0 0
          0.900000 0 0
          1.000000 0 0
        </DataArray>
      </Points>
      <Cells>
        <DataArray type = "Int32" Name="connectivity" format="ascii">
          0 1
          1 2
          2 3
          3 4
          4 5
          5 6
          6 7
          7 8
          8 9
          9 10
        </DataArray>
        <DataArray type = "Int32" Name="offsets" format="ascii">
          2
          4
          6
          8
          10
          12
          14
          16
          18
          20
        </DataArray>
        <DataArray type = "UInt8" Name="types" format="ascii">
          3
          3
          3
          3
          3
          3
          3
          3
          3
          3
        </DataArray>
      </Cells>
      <CellData>
        <DataArray type="Float32" Name="p" format="ascii">
                 100478.788149
                 100428.439561
                 100378.078868
                 100327.706262
                 100277.321913
                 100226.925981
                 100176.518626
                 100126.099998
                 100075.670240
                 100025.229487
        </DataArray>
        <DataArray type="Float32" Name="T" format="ascii">
                    300.738903
                    301.466868
                    302.184023
                    302.890472
                    303.586287
                    304.271508
                    304.946136
                    305.610137
                    306.263443
                    306.905950
        </DataArray>
      </CellData>
      <PointData>
        <DataArray type="Int32" Name="node_id" format="ascii">
          0
          1
          2
          3
          4
          5
          6
          7
          8
          9
          10
        </DataArray>
        <DataArray type="Float32" Name="v" format="ascii">
                      1.000000
                      1.000340
                      1.000675
                      1.001006
                      1.001332
                      1.001653
                      1.001969
                      1.002282
                      1.002590
                      1.002893
                      1.003192
        </DataArray>
      </PointData>
    </Piece>
  </UnstructuredGrid>
</VTKFile>
