# vtk DataFile Version 4.0
my data
ASCII
DATASET STRUCTURED_GRID
DIMENSIONS 11 1 1
POINTS 11 Float32
0.000000 0 0
0.100000 0 0
0.200000 0 0
0.300000 0 0
0.400000 0 0
0.500000 0 0
0.600000 0 0
0.700000 0 0
0.800000 0 0
0.900000 0 0
1.000000 0 0
POINT_DATA 11
SCALARS node_id Float32 1
LOOKUP_TABLE node_id
0
1
2
3
4
5
6
7
8
9
10
SCALARS v_l Float32 1
LOOKUP_TABLE v
1.000000
1.000340
1.000675
1.001006
1.001332
1.001653
1.001969
1.002282
1.002590
1.002893
1.003192
CELL_DATA 10
SCALARS alpha Float32 1
LOOKUP_TABLE p
100478.788149
100428.439561
100378.078868
100327.706262
100277.321913
100226.925981
100176.518626
100126.099998
100075.670240
100025.229487
SCALARS p_l Float32 1
LOOKUP_TABLE T
300.738903
301.466868
302.184023
302.890472
303.586287
304.271508
304.946136
305.610137
306.263443
306.905950
