# vtk DataFile Version 4.0
my data
ASCII
DATASET STRUCTURED_GRID
DIMENSIONS 11 1 1
POINTS 11 Float32
0.000000 0 0
0.100000 0 0
0.200000 0 0
0.300000 0 0
0.400000 0 0
0.500000 0 0
0.600000 0 0
0.700000 0 0
0.800000 0 0
0.900000 0 0
1.000000 0 0
POINT_DATA 11
SCALARS node_id Float32 1
LOOKUP_TABLE node_id
0
1
2
3
4
5
6
7
8
9
10
SCALARS v Float32 1
LOOKUP_TABLE v
1.000000
1.000343
1.000680
1.001013
1.001341
1.001665
1.001984
1.002298
1.002608
1.002913
1.003214
CELL_DATA 10
SCALARS p Float32 1
LOOKUP_TABLE p
100478.890959
100428.531229
100378.159453
100327.775815
100277.380475
100226.973598
100176.555361
100126.125961
100075.685621
100025.234582
SCALARS T Float32 1
LOOKUP_TABLE T
300.373284
301.111141
301.838102
302.553730
303.258294
303.952516
304.637456
305.314306
305.984600
306.648435
