# vtk DataFile Version 4.0
my data
ASCII
DATASET STRUCTURED_GRID
DIMENSIONS 11 1 1
POINTS 11 Float32
0.000000 0 0
0.100000 0 0
0.200000 0 0
0.300000 0 0
0.400000 0 0
0.500000 0 0
0.600000 0 0
0.700000 0 0
0.800000 0 0
0.900000 0 0
1.000000 0 0
POINT_DATA 11
SCALARS node_id Float32 1
LOOKUP_TABLE node_id
0
1
2
3
4
5
6
7
8
9
10
SCALARS v_l Float32 1
LOOKUP_TABLE v
1.000000
1.000343
1.000680
1.001013
1.001341
1.001665
1.001984
1.002298
1.002608
1.002913
1.003214
CELL_DATA 10
SCALARS alpha Float32 1
LOOKUP_TABLE p
100478.890708
100428.530974
100378.159200
100327.775583
100277.380297
100226.973513
100176.555397
100126.126115
100075.685831
100025.234690
SCALARS p_l Float32 1
LOOKUP_TABLE T
300.373269
301.111319
301.838995
302.555980
303.262325
303.958154
304.643659
305.318819
305.984500
306.637929
