<VTKFile type="UnstructuredGrid" version="0.1" byte_order="LittleEndian">
  <UnstructuredGrid>
    <Piece NumberOfPoints="11" NumberOfCells="10">
      <Points>
        <DataArray type = "Float32" NumberOfComponents="3" format="ascii">
          0.000000 0 0
          0.100000 0 0
          0.200000 0 0
          0.300000 0 0
          0.400000 0 0
          0.500000 0 0
          0.600000 0 0
          0.700000 0 0
          0.800000 0 0
          0.900000 0 0
          1.000000 0 0
        </DataArray>
      </Points>
      <Cells>
        <DataArray type = "Int32" Name="connectivity" format="ascii">
          0 1
          1 2
          2 3
          3 4
          4 5
          5 6
          6 7
          7 8
          8 9
          9 10
        </DataArray>
        <DataArray type = "Int32" Name="offsets" format="ascii">
          2
          4
          6
          8
          10
          12
          14
          16
          18
          20
        </DataArray>
        <DataArray type = "UInt8" Name="types" format="ascii">
          3
          3
          3
          3
          3
          3
          3
          3
          3
          3
        </DataArray>
      </Cells>
      <CellData>
        <DataArray type="Float32" Name="p" format="ascii">
                 100478.890959
                 100428.531229
                 100378.159453
                 100327.775815
                 100277.380475
                 100226.973598
                 100176.555361
                 100126.125961
                 100075.685621
                 100025.234582
        </DataArray>
        <DataArray type="Float32" Name="T" format="ascii">
                    300.373284
                    301.111141
                    301.838102
                    302.553730
                    303.258294
                    303.952516
                    304.637456
                    305.314306
                    305.984600
                    306.648435
        </DataArray>
      </CellData>
      <PointData>
        <DataArray type="Int32" Name="node_id" format="ascii">
          0
          1
          2
          3
          4
          5
          6
          7
          8
          9
          10
        </DataArray>
        <DataArray type="Float32" Name="v" format="ascii">
                      1.000000
                      1.000343
                      1.000680
                      1.001013
                      1.001341
                      1.001665
                      1.001984
                      1.002298
                      1.002608
                      1.002913
                      1.003214
        </DataArray>
      </PointData>
    </Piece>
  </UnstructuredGrid>
</VTKFile>
