# vtk DataFile Version 4.0
my data
ASCII
DATASET STRUCTURED_GRID
DIMENSIONS 11 1 1
POINTS 11 Float32
0.000000 0 0
0.100000 0 0
0.200000 0 0
0.300000 0 0
0.400000 0 0
0.500000 0 0
0.600000 0 0
0.700000 0 0
0.800000 0 0
0.900000 0 0
1.000000 0 0
POINT_DATA 11
SCALARS node_id Float32 1
LOOKUP_TABLE node_id
0
1
2
3
4
5
6
7
8
9
10
SCALARS v Float32 1
LOOKUP_TABLE v
1.000000
1.000343
1.000680
1.001013
1.001341
1.001665
1.001984
1.002298
1.002608
1.002913
1.003214
CELL_DATA 10
SCALARS p Float32 1
LOOKUP_TABLE p
100478.890932
100428.531268
100378.159509
100327.775872
100277.380527
100226.973642
100176.555395
100126.125984
100075.685634
100025.234586
SCALARS T Float32 1
LOOKUP_TABLE T
300.376849
301.111941
301.838151
302.553494
303.257907
303.952045
304.636958
305.313829
305.984183
306.648110
