# vtk DataFile Version 4.0
my data
ASCII
DATASET STRUCTURED_GRID
DIMENSIONS 11 1 1
POINTS 11 Float32
0.000000 0 0
0.100000 0 0
0.200000 0 0
0.300000 0 0
0.400000 0 0
0.500000 0 0
0.600000 0 0
0.700000 0 0
0.800000 0 0
0.900000 0 0
1.000000 0 0
POINT_DATA 11
SCALARS node_id Float32 1
LOOKUP_TABLE node_id
0
1
2
3
4
5
6
7
8
9
10
SCALARS v Float32 1
LOOKUP_TABLE v
1.000000
1.000340
1.000675
1.001006
1.001332
1.001653
1.001969
1.002282
1.002589
1.002893
1.003192
CELL_DATA 10
SCALARS p Float32 1
LOOKUP_TABLE p
100478.787503
100428.438914
100378.078223
100327.705622
100277.321283
100226.925376
100176.518066
100126.099519
100075.669895
100025.229356
SCALARS T Float32 1
LOOKUP_TABLE T
300.738908
301.466896
302.184125
302.890756
303.586943
304.272843
304.948606
305.614382
306.270320
306.916564
