<VTKFile type="UnstructuredGrid" version="0.1" byte_order="LittleEndian">
  <UnstructuredGrid>
    <Piece NumberOfPoints="11" NumberOfCells="10">
      <Points>
        <DataArray type = "Float32" NumberOfComponents="3" format="ascii">
          0.000000 0 0
          0.100000 0 0
          0.200000 0 0
          0.300000 0 0
          0.400000 0 0
          0.500000 0 0
          0.600000 0 0
          0.700000 0 0
          0.800000 0 0
          0.900000 0 0
          1.000000 0 0
        </DataArray>
      </Points>
      <Cells>
        <DataArray type = "Int32" Name="connectivity" format="ascii">
          0 1
          1 2
          2 3
          3 4
          4 5
          5 6
          6 7
          7 8
          8 9
          9 10
        </DataArray>
        <DataArray type = "Int32" Name="offsets" format="ascii">
          2
          4
          6
          8
          10
          12
          14
          16
          18
          20
        </DataArray>
        <DataArray type = "UInt8" Name="types" format="ascii">
          3
          3
          3
          3
          3
          3
          3
          3
          3
          3
        </DataArray>
      </Cells>
      <CellData>
        <DataArray type="Float32" Name="p" format="ascii">
                 100478.890624
                 100428.530952
                 100378.159195
                 100327.775582
                 100277.380297
                 100226.973513
                 100176.555398
                 100126.126115
                 100075.685831
                 100025.234690
        </DataArray>
        <DataArray type="Float32" Name="T" format="ascii">
                    300.376629
                    301.112054
                    301.839117
                    302.555959
                    303.262272
                    303.958094
                    304.643599
                    305.318759
                    305.984441
                    306.637871
        </DataArray>
      </CellData>
      <PointData>
        <DataArray type="Int32" Name="node_id" format="ascii">
          0
          1
          2
          3
          4
          5
          6
          7
          8
          9
          10
        </DataArray>
        <DataArray type="Float32" Name="v" format="ascii">
          1.000000
          1.000343
          1.000680
          1.001013
          1.001341
          1.001665
          1.001984
          1.002298
          1.002608
          1.002913
          1.003214
        </DataArray>
      </PointData>
    </Piece>
  </UnstructuredGrid>
</VTKFile>
