# vtk DataFile Version 4.0
my data
ASCII
DATASET STRUCTURED_GRID
DIMENSIONS 11 1 1
POINTS 11 Float32
0.000000 0 0
0.100000 0 0
0.200000 0 0
0.300000 0 0
0.400000 0 0
0.500000 0 0
0.600000 0 0
0.700000 0 0
0.800000 0 0
0.900000 0 0
1.000000 0 0
POINT_DATA 11
SCALARS node_id Float32 1
LOOKUP_TABLE node_id
0
1
2
3
4
5
6
7
8
9
10
SCALARS v_l Float32 1
LOOKUP_TABLE v
1.000000
1.000340
1.000675
1.001006
1.001331
1.001653
1.001969
1.002281
1.002588
1.002890
1.003188
CELL_DATA 10
SCALARS alpha Float32 1
LOOKUP_TABLE p
100478.787424
100428.438835
100378.078143
100327.705541
100277.321201
100226.925292
100176.517981
100126.099436
100075.669823
100025.229306
SCALARS p_l Float32 1
LOOKUP_TABLE T
300.738904
301.466870
302.184029
302.890487
303.586323
304.271580
304.946270
305.610368
306.263817
306.906527
