# vtk DataFile Version 4.0
my data
ASCII
DATASET STRUCTURED_GRID
DIMENSIONS 11 1 1
POINTS 11 Float32
0.000000 0 0
0.100000 0 0
0.200000 0 0
0.300000 0 0
0.400000 0 0
0.500000 0 0
0.600000 0 0
0.700000 0 0
0.800000 0 0
0.900000 0 0
1.000000 0 0
POINT_DATA 11
SCALARS node_id Float32 1
LOOKUP_TABLE node_id
0
1
2
3
4
5
6
7
8
9
10
SCALARS v Float32 1
LOOKUP_TABLE v
1.000000
1.000343
1.000680
1.001013
1.001341
1.001665
1.001984
1.002298
1.002608
1.002913
1.003214
CELL_DATA 10
SCALARS p Float32 1
LOOKUP_TABLE p
100478.890624
100428.530952
100378.159195
100327.775582
100277.380297
100226.973513
100176.555398
100126.126115
100075.685831
100025.234690
SCALARS T Float32 1
LOOKUP_TABLE T
300.376629
301.112054
301.839117
302.555959
303.262272
303.958094
304.643599
305.318759
305.984441
306.637871
