<VTKFile type="UnstructuredGrid" version="0.1" byte_order="LittleEndian">
  <UnstructuredGrid>
    <Piece NumberOfPoints="101" NumberOfCells="100">
      <Points>
        <DataArray type = "Float32" NumberOfComponents="3" format="ascii">
          0.000000 0 0
          0.010000 0 0
          0.020000 0 0
          0.030000 0 0
          0.040000 0 0
          0.050000 0 0
          0.060000 0 0
          0.070000 0 0
          0.080000 0 0
          0.090000 0 0
          0.100000 0 0
          0.110000 0 0
          0.120000 0 0
          0.130000 0 0
          0.140000 0 0
          0.150000 0 0
          0.160000 0 0
          0.170000 0 0
          0.180000 0 0
          0.190000 0 0
          0.200000 0 0
          0.210000 0 0
          0.220000 0 0
          0.230000 0 0
          0.240000 0 0
          0.250000 0 0
          0.260000 0 0
          0.270000 0 0
          0.280000 0 0
          0.290000 0 0
          0.300000 0 0
          0.310000 0 0
          0.320000 0 0
          0.330000 0 0
          0.340000 0 0
          0.350000 0 0
          0.360000 0 0
          0.370000 0 0
          0.380000 0 0
          0.390000 0 0
          0.400000 0 0
          0.410000 0 0
          0.420000 0 0
          0.430000 0 0
          0.440000 0 0
          0.450000 0 0
          0.460000 0 0
          0.470000 0 0
          0.480000 0 0
          0.490000 0 0
          0.500000 0 0
          0.510000 0 0
          0.520000 0 0
          0.530000 0 0
          0.540000 0 0
          0.550000 0 0
          0.560000 0 0
          0.570000 0 0
          0.580000 0 0
          0.590000 0 0
          0.600000 0 0
          0.610000 0 0
          0.620000 0 0
          0.630000 0 0
          0.640000 0 0
          0.650000 0 0
          0.660000 0 0
          0.670000 0 0
          0.680000 0 0
          0.690000 0 0
          0.700000 0 0
          0.710000 0 0
          0.720000 0 0
          0.730000 0 0
          0.740000 0 0
          0.750000 0 0
          0.760000 0 0
          0.770000 0 0
          0.780000 0 0
          0.790000 0 0
          0.800000 0 0
          0.810000 0 0
          0.820000 0 0
          0.830000 0 0
          0.840000 0 0
          0.850000 0 0
          0.860000 0 0
          0.870000 0 0
          0.880000 0 0
          0.890000 0 0
          0.900000 0 0
          0.910000 0 0
          0.920000 0 0
          0.930000 0 0
          0.940000 0 0
          0.950000 0 0
          0.960000 0 0
          0.970000 0 0
          0.980000 0 0
          0.990000 0 0
          1.000000 0 0
        </DataArray>
      </Points>
      <Cells>
        <DataArray type = "Int32" Name="connectivity" format="ascii">
          0 1
          1 2
          2 3
          3 4
          4 5
          5 6
          6 7
          7 8
          8 9
          9 10
          10 11
          11 12
          12 13
          13 14
          14 15
          15 16
          16 17
          17 18
          18 19
          19 20
          20 21
          21 22
          22 23
          23 24
          24 25
          25 26
          26 27
          27 28
          28 29
          29 30
          30 31
          31 32
          32 33
          33 34
          34 35
          35 36
          36 37
          37 38
          38 39
          39 40
          40 41
          41 42
          42 43
          43 44
          44 45
          45 46
          46 47
          47 48
          48 49
          49 50
          50 51
          51 52
          52 53
          53 54
          54 55
          55 56
          56 57
          57 58
          58 59
          59 60
          60 61
          61 62
          62 63
          63 64
          64 65
          65 66
          66 67
          67 68
          68 69
          69 70
          70 71
          71 72
          72 73
          73 74
          74 75
          75 76
          76 77
          77 78
          78 79
          79 80
          80 81
          81 82
          82 83
          83 84
          84 85
          85 86
          86 87
          87 88
          88 89
          89 90
          90 91
          91 92
          92 93
          93 94
          94 95
          95 96
          96 97
          97 98
          98 99
          99 100
        </DataArray>
        <DataArray type = "Int32" Name="offsets" format="ascii">
          2
          4
          6
          8
          10
          12
          14
          16
          18
          20
          22
          24
          26
          28
          30
          32
          34
          36
          38
          40
          42
          44
          46
          48
          50
          52
          54
          56
          58
          60
          62
          64
          66
          68
          70
          72
          74
          76
          78
          80
          82
          84
          86
          88
          90
          92
          94
          96
          98
          100
          102
          104
          106
          108
          110
          112
          114
          116
          118
          120
          122
          124
          126
          128
          130
          132
          134
          136
          138
          140
          142
          144
          146
          148
          150
          152
          154
          156
          158
          160
          162
          164
          166
          168
          170
          172
          174
          176
          178
          180
          182
          184
          186
          188
          190
          192
          194
          196
          198
          200
        </DataArray>
        <DataArray type = "UInt8" Name="types" format="ascii">
          3
          3
          3
          3
          3
          3
          3
          3
          3
          3
          3
          3
          3
          3
          3
          3
          3
          3
          3
          3
          3
          3
          3
          3
          3
          3
          3
          3
          3
          3
          3
          3
          3
          3
          3
          3
          3
          3
          3
          3
          3
          3
          3
          3
          3
          3
          3
          3
          3
          3
          3
          3
          3
          3
          3
          3
          3
          3
          3
          3
          3
          3
          3
          3
          3
          3
          3
          3
          3
          3
          3
          3
          3
          3
          3
          3
          3
          3
          3
          3
          3
          3
          3
          3
          3
          3
          3
          3
          3
          3
          3
          3
          3
          3
          3
          3
          3
          3
          3
          3
        </DataArray>
      </Cells>
      <CellData>
        <DataArray type="Float32" Name="rho" format="ascii">
                      1.000000
                      1.000000
                      1.000000
                      1.000000
                      1.000000
                      1.000000
                      1.000000
                      1.000000
                      1.000000
                      1.000000
                      1.000000
                      1.000000
                      1.000000
                      1.000000
                      1.000000
                      1.000000
                      1.000000
                      1.000000
                      1.000000
                      1.000000
                      1.000000
                      1.000000
                      1.000000
                      1.000000
                      1.000000
                      1.000000
                      1.000000
                      1.000000
                      1.000000
                      1.000000
                      1.000000
                      1.000000
                      1.000000
                      1.000000
                      1.000000
                      1.000000
                      1.000000
                      1.000000
                      1.000000
                      1.000000
                      0.999999
                      0.999996
                      0.999967
                      0.999776
                      0.998646
                      0.992860
                      0.967800
                      0.886750
                      0.746498
                      0.618220
                      0.451033
                      0.338345
                      0.275508
                      0.203499
                      0.142975
                      0.127727
                      0.125353
                      0.125041
                      0.125004
                      0.125000
                      0.125000
                      0.125000
                      0.125000
                      0.125000
                      0.125000
                      0.125000
                      0.125000
                      0.125000
                      0.125000
                      0.125000
                      0.125000
                      0.125000
                      0.125000
                      0.125000
                      0.125000
                      0.125000
                      0.125000
                      0.125000
                      0.125000
                      0.125000
                      0.125000
                      0.125000
                      0.125000
                      0.125000
                      0.125000
                      0.125000
                      0.125000
                      0.125000
                      0.125000
                      0.125000
                      0.125000
                      0.125000
                      0.125000
                      0.125000
                      0.125000
                      0.125000
                      0.125000
                      0.125000
                      0.125000
                      0.125000
        </DataArray>
        <DataArray type="Float32" Name="m" format="ascii">
                      0.000000
                      0.000000
                      0.000000
                      0.000000
                      0.000000
                      0.000000
                      0.000000
                      0.000000
                      0.000000
                      0.000000
                      0.000000
                      0.000000
                      0.000000
                      0.000000
                      0.000000
                      0.000000
                      0.000000
                      0.000000
                      0.000000
                      0.000000
                      0.000000
                      0.000000
                      0.000000
                      0.000000
                      0.000000
                      0.000000
                      0.000000
                      0.000000
                      0.000000
                      0.000000
                      0.000000
                      0.000000
                      0.000000
                      0.000000
                      0.000000
                      0.000000
                      0.000000
                      0.000000
                      0.000000
                      0.000000
                      0.000001
                      0.000005
                      0.000039
                      0.000264
                      0.001592
                      0.008327
                      0.036836
                      0.123734
                      0.236044
                      0.336291
                      0.341571
                      0.316256
                      0.249463
                      0.122705
                      0.023333
                      0.003108
                      0.000383
                      0.000044
                      0.000005
                      0.000000
                      0.000000
                      0.000000
                      0.000000
                      0.000000
                      0.000000
                      0.000000
                      0.000000
                      0.000000
                      0.000000
                      0.000000
                      0.000000
                      0.000000
                      0.000000
                      0.000000
                      0.000000
                      0.000000
                      0.000000
                      0.000000
                      0.000000
                      0.000000
                      0.000000
                      0.000000
                      0.000000
                      0.000000
                      0.000000
                      0.000000
                      0.000000
                      0.000000
                      0.000000
                      0.000000
                      0.000000
                      0.000000
                      0.000000
                      0.000000
                      0.000000
                      0.000000
                      0.000000
                      0.000000
                      0.000000
                      0.000000
        </DataArray>
        <DataArray type="Float32" Name="E" format="ascii">
                      2.500000
                      2.500000
                      2.500000
                      2.500000
                      2.500000
                      2.500000
                      2.500000
                      2.500000
                      2.500000
                      2.500000
                      2.500000
                      2.500000
                      2.500000
                      2.500000
                      2.500000
                      2.500000
                      2.500000
                      2.500000
                      2.500000
                      2.500000
                      2.500000
                      2.500000
                      2.500000
                      2.500000
                      2.500000
                      2.500000
                      2.500000
                      2.500000
                      2.500000
                      2.500000
                      2.500000
                      2.500000
                      2.500000
                      2.500000
                      2.500000
                      2.500000
                      2.500000
                      2.500000
                      2.500000
                      2.500000
                      2.499998
                      2.499985
                      2.499885
                      2.499219
                      2.495287
                      2.475309
                      2.389961
                      2.122755
                      1.716129
                      1.443826
                      1.095244
                      0.888097
                      0.764164
                      0.540768
                      0.310071
                      0.258160
                      0.251012
                      0.250116
                      0.250012
                      0.250001
                      0.250000
                      0.250000
                      0.250000
                      0.250000
                      0.250000
                      0.250000
                      0.250000
                      0.250000
                      0.250000
                      0.250000
                      0.250000
                      0.250000
                      0.250000
                      0.250000
                      0.250000
                      0.250000
                      0.250000
                      0.250000
                      0.250000
                      0.250000
                      0.250000
                      0.250000
                      0.250000
                      0.250000
                      0.250000
                      0.250000
                      0.250000
                      0.250000
                      0.250000
                      0.250000
                      0.250000
                      0.250000
                      0.250000
                      0.250000
                      0.250000
                      0.250000
                      0.250000
                      0.250000
                      0.250000
                      0.250000
        </DataArray>
        <DataArray type="Float32" Name="p" format="ascii">
                      1.000000
                      1.000000
                      1.000000
                      1.000000
                      1.000000
                      1.000000
                      1.000000
                      1.000000
                      1.000000
                      1.000000
                      1.000000
                      1.000000
                      1.000000
                      1.000000
                      1.000000
                      1.000000
                      1.000000
                      1.000000
                      1.000000
                      1.000000
                      1.000000
                      1.000000
                      1.000000
                      1.000000
                      1.000000
                      1.000000
                      1.000000
                      1.000000
                      1.000000
                      1.000000
                      1.000000
                      1.000000
                      1.000000
                      1.000000
                      1.000000
                      1.000000
                      1.000000
                      1.000000
                      1.000000
                      1.000000
                      0.999999
                      0.999994
                      0.999954
                      0.999688
                      0.998114
                      0.990110
                      0.955704
                      0.845649
                      0.671524
                      0.540944
                      0.386363
                      0.296117
                      0.260490
                      0.201509
                      0.123267
                      0.103249
                      0.100404
                      0.100047
                      0.100005
                      0.100000
                      0.100000
                      0.100000
                      0.100000
                      0.100000
                      0.100000
                      0.100000
                      0.100000
                      0.100000
                      0.100000
                      0.100000
                      0.100000
                      0.100000
                      0.100000
                      0.100000
                      0.100000
                      0.100000
                      0.100000
                      0.100000
                      0.100000
                      0.100000
                      0.100000
                      0.100000
                      0.100000
                      0.100000
                      0.100000
                      0.100000
                      0.100000
                      0.100000
                      0.100000
                      0.100000
                      0.100000
                      0.100000
                      0.100000
                      0.100000
                      0.100000
                      0.100000
                      0.100000
                      0.100000
                      0.100000
                      0.100000
        </DataArray>
        <DataArray type="Float32" Name="u" format="ascii">
                      0.000000
                      0.000000
                      0.000000
                      0.000000
                      0.000000
                      0.000000
                      0.000000
                      0.000000
                      0.000000
                      0.000000
                      0.000000
                      0.000000
                      0.000000
                      0.000000
                      0.000000
                      0.000000
                      0.000000
                      0.000000
                      0.000000
                      0.000000
                      0.000000
                      0.000000
                      0.000000
                      0.000000
                      0.000000
                      0.000000
                      0.000000
                      0.000000
                      0.000000
                      0.000000
                      0.000000
                      0.000000
                      0.000000
                      0.000000
                      0.000000
                      0.000000
                      0.000000
                      0.000000
                      0.000000
                      0.000000
                      0.000001
                      0.000005
                      0.000039
                      0.000264
                      0.001595
                      0.008387
                      0.038061
                      0.139536
                      0.316201
                      0.543966
                      0.757308
                      0.934712
                      0.905465
                      0.602975
                      0.163196
                      0.024334
                      0.003054
                      0.000351
                      0.000038
                      0.000004
                      0.000000
                      0.000000
                      0.000000
                      0.000000
                      0.000000
                      0.000000
                      0.000000
                      0.000000
                      0.000000
                      0.000000
                      0.000000
                      0.000000
                      0.000000
                      0.000000
                      0.000000
                      0.000000
                      0.000000
                      0.000000
                      0.000000
                      0.000000
                      0.000000
                      0.000000
                      0.000000
                      0.000000
                      0.000000
                      0.000000
                      0.000000
                      0.000000
                      0.000000
                      0.000000
                      0.000000
                      0.000000
                      0.000000
                      0.000000
                      0.000000
                      0.000000
                      0.000000
                      0.000000
                      0.000000
                      0.000000
        </DataArray>
      </CellData>
    </Piece>
  </UnstructuredGrid>
</VTKFile>
