<VTKFile type="UnstructuredGrid" version="0.1" byte_order="LittleEndian">
  <UnstructuredGrid>
    <Piece NumberOfPoints="101" NumberOfCells="100">
      <Points>
        <DataArray type = "Float32" NumberOfComponents="3" format="ascii">
          0.000000 0 0
          0.120000 0 0
          0.240000 0 0
          0.360000 0 0
          0.480000 0 0
          0.600000 0 0
          0.720000 0 0
          0.840000 0 0
          0.960000 0 0
          1.080000 0 0
          1.200000 0 0
          1.320000 0 0
          1.440000 0 0
          1.560000 0 0
          1.680000 0 0
          1.800000 0 0
          1.920000 0 0
          2.040000 0 0
          2.160000 0 0
          2.280000 0 0
          2.400000 0 0
          2.520000 0 0
          2.640000 0 0
          2.760000 0 0
          2.880000 0 0
          3.000000 0 0
          3.120000 0 0
          3.240000 0 0
          3.360000 0 0
          3.480000 0 0
          3.600000 0 0
          3.720000 0 0
          3.840000 0 0
          3.960000 0 0
          4.080000 0 0
          4.200000 0 0
          4.320000 0 0
          4.440000 0 0
          4.560000 0 0
          4.680000 0 0
          4.800000 0 0
          4.920000 0 0
          5.040000 0 0
          5.160000 0 0
          5.280000 0 0
          5.400000 0 0
          5.520000 0 0
          5.640000 0 0
          5.760000 0 0
          5.880000 0 0
          6.000000 0 0
          6.120000 0 0
          6.240000 0 0
          6.360000 0 0
          6.480000 0 0
          6.600000 0 0
          6.720000 0 0
          6.840000 0 0
          6.960000 0 0
          7.080000 0 0
          7.200000 0 0
          7.320000 0 0
          7.440000 0 0
          7.560000 0 0
          7.680000 0 0
          7.800000 0 0
          7.920000 0 0
          8.040000 0 0
          8.160000 0 0
          8.280000 0 0
          8.400000 0 0
          8.520000 0 0
          8.640000 0 0
          8.760000 0 0
          8.880000 0 0
          9.000000 0 0
          9.120000 0 0
          9.240000 0 0
          9.360000 0 0
          9.480000 0 0
          9.600000 0 0
          9.720000 0 0
          9.840000 0 0
          9.960000 0 0
          10.080000 0 0
          10.200000 0 0
          10.320000 0 0
          10.440000 0 0
          10.560000 0 0
          10.680000 0 0
          10.800000 0 0
          10.920000 0 0
          11.040000 0 0
          11.160000 0 0
          11.280000 0 0
          11.400000 0 0
          11.520000 0 0
          11.640000 0 0
          11.760000 0 0
          11.880000 0 0
          12.000000 0 0
        </DataArray>
      </Points>
      <Cells>
        <DataArray type = "Int32" Name="connectivity" format="ascii">
          0 1
          1 2
          2 3
          3 4
          4 5
          5 6
          6 7
          7 8
          8 9
          9 10
          10 11
          11 12
          12 13
          13 14
          14 15
          15 16
          16 17
          17 18
          18 19
          19 20
          20 21
          21 22
          22 23
          23 24
          24 25
          25 26
          26 27
          27 28
          28 29
          29 30
          30 31
          31 32
          32 33
          33 34
          34 35
          35 36
          36 37
          37 38
          38 39
          39 40
          40 41
          41 42
          42 43
          43 44
          44 45
          45 46
          46 47
          47 48
          48 49
          49 50
          50 51
          51 52
          52 53
          53 54
          54 55
          55 56
          56 57
          57 58
          58 59
          59 60
          60 61
          61 62
          62 63
          63 64
          64 65
          65 66
          66 67
          67 68
          68 69
          69 70
          70 71
          71 72
          72 73
          73 74
          74 75
          75 76
          76 77
          77 78
          78 79
          79 80
          80 81
          81 82
          82 83
          83 84
          84 85
          85 86
          86 87
          87 88
          88 89
          89 90
          90 91
          91 92
          92 93
          93 94
          94 95
          95 96
          96 97
          97 98
          98 99
          99 100
        </DataArray>
        <DataArray type = "Int32" Name="offsets" format="ascii">
          2
          4
          6
          8
          10
          12
          14
          16
          18
          20
          22
          24
          26
          28
          30
          32
          34
          36
          38
          40
          42
          44
          46
          48
          50
          52
          54
          56
          58
          60
          62
          64
          66
          68
          70
          72
          74
          76
          78
          80
          82
          84
          86
          88
          90
          92
          94
          96
          98
          100
          102
          104
          106
          108
          110
          112
          114
          116
          118
          120
          122
          124
          126
          128
          130
          132
          134
          136
          138
          140
          142
          144
          146
          148
          150
          152
          154
          156
          158
          160
          162
          164
          166
          168
          170
          172
          174
          176
          178
          180
          182
          184
          186
          188
          190
          192
          194
          196
          198
          200
        </DataArray>
        <DataArray type = "UInt8" Name="types" format="ascii">
          3
          3
          3
          3
          3
          3
          3
          3
          3
          3
          3
          3
          3
          3
          3
          3
          3
          3
          3
          3
          3
          3
          3
          3
          3
          3
          3
          3
          3
          3
          3
          3
          3
          3
          3
          3
          3
          3
          3
          3
          3
          3
          3
          3
          3
          3
          3
          3
          3
          3
          3
          3
          3
          3
          3
          3
          3
          3
          3
          3
          3
          3
          3
          3
          3
          3
          3
          3
          3
          3
          3
          3
          3
          3
          3
          3
          3
          3
          3
          3
          3
          3
          3
          3
          3
          3
          3
          3
          3
          3
          3
          3
          3
          3
          3
          3
          3
          3
          3
          3
        </DataArray>
      </Cells>
      <CellData>
        <DataArray type="Float32" Name="alpha" format="ascii">
                      0.205890
                      0.213991
                      0.222539
                      0.230984
                      0.239199
                      0.247165
                      0.254888
                      0.262379
                      0.269649
                      0.276708
                      0.283567
                      0.290233
                      0.296716
                      0.303026
                      0.309172
                      0.315162
                      0.320996
                      0.326666
                      0.332169
                      0.337527
                      0.342795
                      0.348045
                      0.353313
                      0.358535
                      0.363521
                      0.368019
                      0.371867
                      0.375148
                      0.378228
                      0.381680
                      0.386190
                      0.392397
                      0.400580
                      0.410328
                      0.420477
                      0.429454
                      0.435837
                      0.438717
                      0.437865
                      0.433433
                      0.423212
                      0.406273
                      0.383267
                      0.356091
                      0.327246
                      0.299197
                      0.273914
                      0.252653
                      0.235912
                      0.223517
                      0.214832
                      0.209024
                      0.205279
                      0.202962
                      0.201593
                      0.200822
                      0.200407
                      0.200193
                      0.200086
                      0.200036
                      0.200014
                      0.200004
                      0.200001
                      0.200000
                      0.200000
                      0.200000
                      0.200001
                      0.200001
                      0.200001
                      0.200001
                      0.200001
                      0.200001
                      0.200001
                      0.200001
                      0.200001
                      0.200001
                      0.200001
                      0.200001
                      0.200001
                      0.200001
                      0.200001
                      0.200001
                      0.200001
                      0.200001
                      0.200001
                      0.200001
                      0.200001
                      0.200001
                      0.200001
                      0.200001
                      0.200001
                      0.200001
                      0.200001
                      0.200001
                      0.200001
                      0.200001
                      0.200001
                      0.200001
                      0.200001
                      0.200001
        </DataArray>
        <DataArray type="Float32" Name="p" format="ascii">
                 100068.289018
                 100068.851496
                 100069.406076
                 100069.953020
                 100070.492547
                 100071.024860
                 100071.550148
                 100072.068588
                 100072.580336
                 100073.085506
                 100073.584116
                 100074.076091
                 100074.561427
                 100075.040461
                 100075.513839
                 100075.981811
                 100076.443147
                 100076.895022
                 100077.335280
                 100077.766518
                 100078.198656
                 100078.645898
                 100079.116476
                 100079.597951
                 100080.049034
                 100080.412877
                 100080.655411
                 100080.794512
                 100080.896861
                 100081.074071
                 100081.487578
                 100082.303511
                 100083.581672
                 100085.180121
                 100086.788760
                 100088.067357
                 100088.655211
                 100088.610699
                 100088.411717
                 100087.391209
                 100084.918223
                 100080.379085
                 100073.139178
                 100062.545958
                 100048.075327
                 100029.630996
                 100007.929947
                  99984.731421
                  99962.537262
                  99943.673590
                  99929.410949
                  99919.710490
                  99913.903673
                  99911.082360
                  99910.326077
                  99910.871637
                  99912.179547
                  99913.904500
                  99915.845067
                  99917.893165
                  99919.988564
                  99922.093579
                  99924.204185
                  99926.312632
                  99928.414900
                  99930.510901
                  99932.600602
                  99934.683987
                  99936.761187
                  99938.832411
                  99940.897869
                  99942.957756
                  99945.012258
                  99947.061524
                  99949.105713
                  99951.144982
                  99953.179487
                  99955.209381
                  99957.234817
                  99959.255950
                  99961.272934
                  99963.285924
                  99965.295075
                  99967.300545
                  99969.302491
                  99971.301071
                  99973.296444
                  99975.288769
                  99977.278205
                  99979.264914
                  99981.249057
                  99983.230793
                  99985.210286
                  99987.187697
                  99989.163189
                  99991.136925
                  99993.109071
                  99995.079660
                  99997.050020
                  99999.017382
        </DataArray>
        <DataArray type="Float32" Name="rho_l" format="ascii">
                    889.793076
                    889.793075
                    889.793071
                    889.793064
                    889.793056
                    889.793052
                    889.793052
                    889.793054
                    889.793057
                    889.793060
                    889.793060
                    889.793059
                    889.793056
                    889.793051
                    889.793047
                    889.793045
                    889.793046
                    889.793047
                    889.793048
                    889.793049
                    889.793049
                    889.793048
                    889.793046
                    889.793043
                    889.793041
                    889.793040
                    889.793040
                    889.793040
                    889.793041
                    889.793041
                    889.793041
                    889.793041
                    889.793040
                    889.793038
                    889.793036
                    889.793033
                    889.793031
                    889.793030
                    889.793031
                    889.793032
                    889.793034
                    889.793036
                    889.793039
                    889.793039
                    889.793038
                    889.793033
                    889.793025
                    889.793016
                    889.793006
                    889.792998
                    889.792991
                    889.792987
                    889.792984
                    889.792983
                    889.792982
                    889.792983
                    889.792984
                    889.792984
                    889.792986
                    889.792987
                    889.792988
                    889.792989
                    889.792990
                    889.792991
                    889.792992
                    889.792993
                    889.792994
                    889.792995
                    889.792997
                    889.792998
                    889.792999
                    889.793000
                    889.793001
                    889.793002
                    889.793003
                    889.793004
                    889.793005
                    889.793006
                    889.793007
                    889.793008
                    889.793009
                    889.793010
                    889.793012
                    889.793013
                    889.793014
                    889.793015
                    889.793016
                    889.793017
                    889.793018
                    889.793019
                    889.793020
                    889.793021
                    889.793022
                    889.793023
                    889.793024
                    889.793025
                    889.793026
                    889.793027
                    889.793028
                    889.793029
        </DataArray>
        <DataArray type="Float32" Name="rho_g" format="ascii">
                      0.484838
                      0.484840
                      0.484842
                      0.484844
                      0.484846
                      0.484848
                      0.484850
                      0.484852
                      0.484854
                      0.484856
                      0.484857
                      0.484859
                      0.484861
                      0.484863
                      0.484865
                      0.484866
                      0.484868
                      0.484870
                      0.484871
                      0.484873
                      0.484875
                      0.484876
                      0.484878
                      0.484880
                      0.484881
                      0.484883
                      0.484884
                      0.484884
                      0.484885
                      0.484885
                      0.484887
                      0.484890
                      0.484895
                      0.484901
                      0.484907
                      0.484911
                      0.484913
                      0.484913
                      0.484913
                      0.484909
                      0.484900
                      0.484883
                      0.484856
                      0.484816
                      0.484763
                      0.484694
                      0.484614
                      0.484528
                      0.484446
                      0.484376
                      0.484324
                      0.484288
                      0.484267
                      0.484256
                      0.484253
                      0.484255
                      0.484260
                      0.484267
                      0.484274
                      0.484281
                      0.484289
                      0.484297
                      0.484305
                      0.484312
                      0.484320
                      0.484328
                      0.484336
                      0.484343
                      0.484351
                      0.484359
                      0.484366
                      0.484374
                      0.484381
                      0.484389
                      0.484396
                      0.484404
                      0.484411
                      0.484419
                      0.484426
                      0.484434
                      0.484441
                      0.484449
                      0.484456
                      0.484464
                      0.484471
                      0.484478
                      0.484486
                      0.484493
                      0.484500
                      0.484508
                      0.484515
                      0.484522
                      0.484530
                      0.484537
                      0.484544
                      0.484551
                      0.484559
                      0.484566
                      0.484573
                      0.484580
        </DataArray>
        <DataArray type="Float32" Name="T_l" format="ascii">
                    449.999999
                    450.000000
                    450.000004
                    450.000011
                    450.000019
                    450.000023
                    450.000023
                    450.000022
                    450.000019
                    450.000017
                    450.000017
                    450.000018
                    450.000022
                    450.000026
                    450.000030
                    450.000032
                    450.000032
                    450.000032
                    450.000031
                    450.000030
                    450.000030
                    450.000031
                    450.000034
                    450.000036
                    450.000039
                    450.000040
                    450.000040
                    450.000040
                    450.000040
                    450.000039
                    450.000039
                    450.000040
                    450.000042
                    450.000044
                    450.000048
                    450.000051
                    450.000053
                    450.000054
                    450.000054
                    450.000052
                    450.000049
                    450.000043
                    450.000037
                    450.000030
                    450.000022
                    450.000015
                    450.000009
                    450.000003
                    449.999998
                    449.999995
                    449.999992
                    449.999990
                    449.999989
                    449.999988
                    449.999988
                    449.999988
                    449.999988
                    449.999988
                    449.999989
                    449.999989
                    449.999989
                    449.999989
                    449.999990
                    449.999990
                    449.999990
                    449.999991
                    449.999991
                    449.999991
                    449.999991
                    449.999992
                    449.999992
                    449.999992
                    449.999992
                    449.999993
                    449.999993
                    449.999993
                    449.999994
                    449.999994
                    449.999994
                    449.999994
                    449.999995
                    449.999995
                    449.999995
                    449.999996
                    449.999996
                    449.999996
                    449.999996
                    449.999997
                    449.999997
                    449.999997
                    449.999997
                    449.999998
                    449.999998
                    449.999998
                    449.999999
                    449.999999
                    449.999999
                    449.999999
                    450.000000
                    450.000000
        </DataArray>
        <DataArray type="Float32" Name="T_g" format="ascii">
                    450.073914
                    450.074523
                    450.075123
                    450.075717
                    450.076302
                    450.076879
                    450.077447
                    450.078005
                    450.078555
                    450.079099
                    450.079639
                    450.080172
                    450.080698
                    450.081216
                    450.081729
                    450.082233
                    450.082729
                    450.083212
                    450.083684
                    450.084147
                    450.084612
                    450.085095
                    450.085605
                    450.086126
                    450.086614
                    450.087007
                    450.087267
                    450.087413
                    450.087518
                    450.087704
                    450.088146
                    450.089024
                    450.090403
                    450.092130
                    450.093869
                    450.095251
                    450.095887
                    450.095838
                    450.095618
                    450.094518
                    450.091833
                    450.086926
                    450.079100
                    450.067637
                    450.052000
                    450.032047
                    450.008608
                    449.983628
                    449.959829
                    449.939590
                    449.924285
                    449.913875
                    449.907643
                    449.904614
                    449.903802
                    449.904386
                    449.905790
                    449.907640
                    449.909722
                    449.911920
                    449.914168
                    449.916427
                    449.918691
                    449.920954
                    449.923209
                    449.925458
                    449.927700
                    449.929936
                    449.932165
                    449.934387
                    449.936603
                    449.938813
                    449.941017
                    449.943216
                    449.945409
                    449.947597
                    449.949780
                    449.951957
                    449.954130
                    449.956299
                    449.958462
                    449.960622
                    449.962777
                    449.964928
                    449.967076
                    449.969220
                    449.971360
                    449.973497
                    449.975631
                    449.977762
                    449.979890
                    449.982016
                    449.984139
                    449.986259
                    449.988378
                    449.990495
                    449.992610
                    449.994723
                    449.996836
                    449.998946
        </DataArray>
      </CellData>
      <PointData>
        <DataArray type="Int32" Name="node_id" format="ascii">
          0
          1
          2
          3
          4
          5
          6
          7
          8
          9
          10
          11
          12
          13
          14
          15
          16
          17
          18
          19
          20
          21
          22
          23
          24
          25
          26
          27
          28
          29
          30
          31
          32
          33
          34
          35
          36
          37
          38
          39
          40
          41
          42
          43
          44
          45
          46
          47
          48
          49
          50
          51
          52
          53
          54
          55
          56
          57
          58
          59
          60
          61
          62
          63
          64
          65
          66
          67
          68
          69
          70
          71
          72
          73
          74
          75
          76
          77
          78
          79
          80
          81
          82
          83
          84
          85
          86
          87
          88
          89
          90
          91
          92
          93
          94
          95
          96
          97
          98
          99
          100
        </DataArray>
        <DataArray type="Float32" Name="v_l" format="ascii">
                     10.000000
                     10.116556
                     10.232103
                     10.346434
                     10.459534
                     10.571427
                     10.682148
                     10.791733
                     10.900215
                     11.007627
                     11.114002
                     11.219370
                     11.323757
                     11.427190
                     11.529695
                     11.631297
                     11.732025
                     11.831900
                     11.930937
                     12.029138
                     12.126506
                     12.223068
                     12.318892
                     12.414086
                     12.508751
                     12.602902
                     12.696405
                     12.788968
                     12.880232
                     12.969935
                     13.058112
                     13.145223
                     13.232154
                     13.320045
                     13.410007
                     13.502799
                     13.598570
                     13.696711
                     13.795852
                     13.893975
                     13.988547
                     14.076851
                     14.156376
                     14.225150
                     14.281946
                     14.326357
                     14.358775
                     14.380339
                     14.392898
                     14.398856
                     14.400736
                     14.400603
                     14.399897
                     14.398712
                     14.397408
                     14.396288
                     14.395462
                     14.394908
                     14.394558
                     14.394346
                     14.394222
                     14.394153
                     14.394115
                     14.394094
                     14.394084
                     14.394079
                     14.394077
                     14.394076
                     14.394076
                     14.394077
                     14.394077
                     14.394078
                     14.394079
                     14.394080
                     14.394080
                     14.394081