<VTKFile type="UnstructuredGrid" version="0.1" byte_order="LittleEndian">
  <UnstructuredGrid>
    <Piece NumberOfPoints="101" NumberOfCells="100">
      <Points>
        <DataArray type = "Float32" NumberOfComponents="3" format="ascii">
          0.000000 0 0
          0.120000 0 0
          0.240000 0 0
          0.360000 0 0
          0.480000 0 0
          0.600000 0 0
          0.720000 0 0
          0.840000 0 0
          0.960000 0 0
          1.080000 0 0
          1.200000 0 0
          1.320000 0 0
          1.440000 0 0
          1.560000 0 0
          1.680000 0 0
          1.800000 0 0
          1.920000 0 0
          2.040000 0 0
          2.160000 0 0
          2.280000 0 0
          2.400000 0 0
          2.520000 0 0
          2.640000 0 0
          2.760000 0 0
          2.880000 0 0
          3.000000 0 0
          3.120000 0 0
          3.240000 0 0
          3.360000 0 0
          3.480000 0 0
          3.600000 0 0
          3.720000 0 0
          3.840000 0 0
          3.960000 0 0
          4.080000 0 0
          4.200000 0 0
          4.320000 0 0
          4.440000 0 0
          4.560000 0 0
          4.680000 0 0
          4.800000 0 0
          4.920000 0 0
          5.040000 0 0
          5.160000 0 0
          5.280000 0 0
          5.400000 0 0
          5.520000 0 0
          5.640000 0 0
          5.760000 0 0
          5.880000 0 0
          6.000000 0 0
          6.120000 0 0
          6.240000 0 0
          6.360000 0 0
          6.480000 0 0
          6.600000 0 0
          6.720000 0 0
          6.840000 0 0
          6.960000 0 0
          7.080000 0 0
          7.200000 0 0
          7.320000 0 0
          7.440000 0 0
          7.560000 0 0
          7.680000 0 0
          7.800000 0 0
          7.920000 0 0
          8.040000 0 0
          8.160000 0 0
          8.280000 0 0
          8.400000 0 0
          8.520000 0 0
          8.640000 0 0
          8.760000 0 0
          8.880000 0 0
          9.000000 0 0
          9.120000 0 0
          9.240000 0 0
          9.360000 0 0
          9.480000 0 0
          9.600000 0 0
          9.720000 0 0
          9.840000 0 0
          9.960000 0 0
          10.080000 0 0
          10.200000 0 0
          10.320000 0 0
          10.440000 0 0
          10.560000 0 0
          10.680000 0 0
          10.800000 0 0
          10.920000 0 0
          11.040000 0 0
          11.160000 0 0
          11.280000 0 0
          11.400000 0 0
          11.520000 0 0
          11.640000 0 0
          11.760000 0 0
          11.880000 0 0
          12.000000 0 0
        </DataArray>
      </Points>
      <Cells>
        <DataArray type = "Int32" Name="connectivity" format="ascii">
          0 1
          1 2
          2 3
          3 4
          4 5
          5 6
          6 7
          7 8
          8 9
          9 10
          10 11
          11 12
          12 13
          13 14
          14 15
          15 16
          16 17
          17 18
          18 19
          19 20
          20 21
          21 22
          22 23
          23 24
          24 25
          25 26
          26 27
          27 28
          28 29
          29 30
          30 31
          31 32
          32 33
          33 34
          34 35
          35 36
          36 37
          37 38
          38 39
          39 40
          40 41
          41 42
          42 43
          43 44
          44 45
          45 46
          46 47
          47 48
          48 49
          49 50
          50 51
          51 52
          52 53
          53 54
          54 55
          55 56
          56 57
          57 58
          58 59
          59 60
          60 61
          61 62
          62 63
          63 64
          64 65
          65 66
          66 67
          67 68
          68 69
          69 70
          70 71
          71 72
          72 73
          73 74
          74 75
          75 76
          76 77
          77 78
          78 79
          79 80
          80 81
          81 82
          82 83
          83 84
          84 85
          85 86
          86 87
          87 88
          88 89
          89 90
          90 91
          91 92
          92 93
          93 94
          94 95
          95 96
          96 97
          97 98
          98 99
          99 100
        </DataArray>
        <DataArray type = "Int32" Name="offsets" format="ascii">
          2
          4
          6
          8
          10
          12
          14
          16
          18
          20
          22
          24
          26
          28
          30
          32
          34
          36
          38
          40
          42
          44
          46
          48
          50
          52
          54
          56
          58
          60
          62
          64
          66
          68
          70
          72
          74
          76
          78
          80
          82
          84
          86
          88
          90
          92
          94
          96
          98
          100
          102
          104
          106
          108
          110
          112
          114
          116
          118
          120
          122
          124
          126
          128
          130
          132
          134
          136
          138
          140
          142
          144
          146
          148
          150
          152
          154
          156
          158
          160
          162
          164
          166
          168
          170
          172
          174
          176
          178
          180
          182
          184
          186
          188
          190
          192
          194
          196
          198
          200
        </DataArray>
        <DataArray type = "UInt8" Name="types" format="ascii">
          3
          3
          3
          3
          3
          3
          3
          3
          3
          3
          3
          3
          3
          3
          3
          3
          3
          3
          3
          3
          3
          3
          3
          3
          3
          3
          3
          3
          3
          3
          3
          3
          3
          3
          3
          3
          3
          3
          3
          3
          3
          3
          3
          3
          3
          3
          3
          3
          3
          3
          3
          3
          3
          3
          3
          3
          3
          3
          3
          3
          3
          3
          3
          3
          3
          3
          3
          3
          3
          3
          3
          3
          3
          3
          3
          3
          3
          3
          3
          3
          3
          3
          3
          3
          3
          3
          3
          3
          3
          3
          3
          3
          3
          3
          3
          3
          3
          3
          3
          3
        </DataArray>
      </Cells>
      <CellData>
        <DataArray type="Float32" Name="alpha" format="ascii">
                      0.205890
                      0.213991
                      0.222538
                      0.230983
                      0.239199
                      0.247166
                      0.254890
                      0.262381
                      0.269650
                      0.276709
                      0.283566
                      0.290233
                      0.296717
                      0.303026
                      0.309169
                      0.315151
                      0.320981
                      0.326666
                      0.332216
                      0.337633
                      0.342913
                      0.348048
                      0.353037
                      0.357904
                      0.362698
                      0.367484
                      0.372299
                      0.377108
                      0.381775
                      0.386086
                      0.389848
                      0.393011
                      0.395746
                      0.398433
                      0.401586
                      0.405787
                      0.411545
                      0.419061
                      0.428037
                      0.437644
                      0.446853
                      0.454195
                      0.458453
                      0.459526
                      0.457732
                      0.451780
                      0.439981
                      0.421883
                      0.398283
                      0.370864
                      0.341743
                      0.313037
                      0.286554
                      0.263599
                      0.244872
                      0.230447
                      0.219895
                      0.212524
                      0.207560
                      0.204359
                      0.202394
                      0.201249
                      0.200616
                      0.200283
                      0.200118
                      0.200041
                      0.200009
                      0.199997
                      0.199995
                      0.199996
                      0.199997
                      0.199998
                      0.199999
                      0.200000
                      0.200000
                      0.200001
                      0.200001
                      0.200001
                      0.200001
                      0.200001
                      0.200001
                      0.200001
                      0.200001
                      0.200001
                      0.200001
                      0.200001
                      0.200001
                      0.200001
                      0.200001
                      0.200001
                      0.200001
                      0.200001
                      0.200001
                      0.200001
                      0.200001
                      0.200001
                      0.200001
                      0.200001
                      0.200001
                      0.200001
        </DataArray>
        <DataArray type="Float32" Name="p" format="ascii">
                 100008.213232
                 100008.794666
                 100009.386651
                 100009.988823
                 100010.600880
                 100011.222559
                 100011.853638
                 100012.493925
                 100013.143260
                 100013.801523
                 100014.468632
                 100015.144536
                 100015.829180
                 100016.522449
                 100017.224155
                 100017.934128
                 100018.652434
                 100019.379467
                 100020.115623
                 100020.860502
                 100021.612224
                 100022.367941
                 100023.126195
                 100023.890150
                 100024.669204
                 100025.476136
                 100026.319427
                 100027.192095
                 100028.063680
                 100028.885669
                 100029.614604
                 100030.241546
                 100030.802668
                 100031.368908
                 100032.051152
                 100032.993695
                 100034.330429
                 100036.098369
                 100038.179500
                 100040.340818
                 100042.330810
                 100043.871606
                 100044.566908
                 100045.126770
                 100045.304278
                 100044.493326
                 100042.131023
                 100037.691455
                 100030.591002
                 100020.182381
                 100005.854274
                  99987.272759
                  99964.758504
                  99939.661606
                  99914.349698
                  99891.478520
                  99873.056617
                  99859.756299
                  99851.375782
                  99847.173729
                  99846.121305
                  99847.205978
                  99849.618106
                  99852.799143
                  99856.397248
                  99860.208914
                  99864.127941
                  99868.102300
                  99872.091525
                  99876.090442
                  99880.096300
                  99884.107528
                  99888.123188
                  99892.143124
                  99896.167577
                  99900.196702
                  99904.230545
                  99908.269050
                  99912.312132
                  99916.359686
                  99920.411558
                  99924.467550
                  99928.527475
                  99932.591143
                  99936.658359
                  99940.728923
                  99944.802633
                  99948.879288
                  99952.958683
                  99957.040615
                  99961.124882
                  99965.211278
                  99969.299598
                  99973.389641
                  99977.481191
                  99981.574062
                  99985.668038
                  99989.762657
                  99993.860214
                  99997.954779
        </DataArray>
        <DataArray type="Float32" Name="rho_l" format="ascii">
                    889.793034
                    889.793036
                    889.793040
                    889.793043
                    889.793044
                    889.793043
                    889.793040
                    889.793035
                    889.793029
                    889.793026
                    889.793026
                    889.793027
                    889.793029
                    889.793030
                    889.793031
                    889.793030
                    889.793028
                    889.793025
                    889.793022
                    889.793020
                    889.793019
                    889.793020
                    889.793021
                    889.793021
                    889.793022
                    889.793021
                    889.793021
                    889.793019
                    889.793017
                    889.793016
                    889.793015
                    889.793015
                    889.793016
                    889.793016
                    889.793016
                    889.793017
                    889.793017
                    889.793016
                    889.793015
                    889.793013
                    889.793011
                    889.793010
                    889.793009
                    889.793008
                    889.793009
                    889.793010
                    889.793013
                    889.793015
                    889.793017
                    889.793018
                    889.793016
                    889.793010
                    889.793002
                    889.792992
                    889.792980
                    889.792970
                    889.792961
                    889.792955
                    889.792951
                    889.792949
                    889.792949
                    889.792949
                    889.792951
                    889.792952
                    889.792954
                    889.792956
                    889.792958
                    889.792960
                    889.792963
                    889.792965
                    889.792967
                    889.792969
                    889.792971
                    889.792973
                    889.792975
                    889.792977
                    889.792979
                    889.792982
                    889.792984
                    889.792986
                    889.792988
                    889.792990
                    889.792992
                    889.792994
                    889.792997
                    889.792999
                    889.793001
                    889.793003
                    889.793005
                    889.793007
                    889.793009
                    889.793012
                    889.793014
                    889.793016
                    889.793018
                    889.793020
                    889.793022
                    889.793024
                    889.793027
                    889.793029
        </DataArray>
        <DataArray type="Float32" Name="rho_g" format="ascii">
                      0.484615
                      0.484617
                      0.484619
                      0.484621
                      0.484623
                      0.484626
                      0.484628
                      0.484630
                      0.484633
                      0.484635
                      0.484638
                      0.484640
                      0.484643
                      0.484645
                      0.484648
                      0.484651
                      0.484653
                      0.484656
                      0.484659
                      0.484662
                      0.484664
                      0.484667
                      0.484670
                      0.484673
                      0.484676
                      0.484679
                      0.484682
                      0.484685
                      0.484688
                      0.484691
                      0.484694
                      0.484696
                      0.484699
                      0.484701
                      0.484703
                      0.484707
                      0.484712
                      0.484718
                      0.484726
                      0.484734
                      0.484741
                      0.484747
                      0.484750
                      0.484752
                      0.484752
                      0.484749
                      0.484741
                      0.484724
                      0.484698
                      0.484659
                      0.484606
                      0.484537
                      0.484454
                      0.484362
                      0.484268
                      0.484184
                      0.484116
                      0.484067
                      0.484036
                      0.484021
                      0.484017
                      0.484021
                      0.484030
                      0.484041
                      0.484055
                      0.484069
                      0.484083
                      0.484098
                      0.484112
                      0.484127
                      0.484142
                      0.484157
                      0.484172
                      0.484186
                      0.484201
                      0.484216
                      0.484231
                      0.484246
                      0.484261
                      0.484276
                      0.484291
                      0.484306
                      0.484321
                      0.484336
                      0.484351
                      0.484366
                      0.484381
                      0.484396
                      0.484411
                      0.484426
                      0.484441
                      0.484456
                      0.484471
                      0.484486
                      0.484501
                      0.484516
                      0.484531
                      0.484546
                      0.484561
                      0.484577
        </DataArray>
        <DataArray type="Float32" Name="T_l" format="ascii">
                    450.000001
                    450.000000
                    449.999997
                    449.999994
                    449.999993
                    449.999994
                    449.999998
                    450.000003
                    450.000009
                    450.000012
                    450.000012
                    450.000012
                    450.000011
                    450.000010
                    450.000010
                    450.000011
                    450.000013
                    450.000017
                    450.000020
                    450.000022
                    450.000023
                    450.000023
                    450.000023
                    450.000023
                    450.000023
                    450.000023
                    450.000025
                    450.000027
                    450.000029
                    450.000031
                    450.000032
                    450.000032
                    450.000032
                    450.000032
                    450.000032
                    450.000032
                    450.000033
                    450.000035
                    450.000037
                    450.000040
                    450.000043
                    450.000046
                    450.000047
                    450.000048
                    450.000047
                    450.000045
                    450.000042
                    450.000037
                    450.000030
                    450.000024
                    450.000017
                    450.000010
                    450.000004
                    449.999998
                    449.999992
                    449.999988
                    449.999985
                    449.999982
                    449.999981
                    449.999980
                    449.999979
                    449.999979
                    449.999980
                    449.999980
                    449.999980
                    449.999981
                    449.999981
                    449.999982
                    449.999983
                    449.999983
                    449.999984
                    449.999984
                    449.999985
                    449.999985
                    449.999986
                    449.999986
                    449.999987
                    449.999987
                    449.999988
                    449.999989
                    449.999989
                    449.999990
                    449.999990
                    449.999991
                    449.999991
                    449.999992
                    449.999992
                    449.999993
                    449.999994
                    449.999994
                    449.999995
                    449.999995
                    449.999996
                    449.999996
                    449.999997
                    449.999997
                    449.999998
                    449.999999
                    449.999999
                    450.000000
        </DataArray>
        <DataArray type="Float32" Name="T_g" format="ascii">
                    450.008977
                    450.009607
                    450.010246
                    450.010898
                    450.011560
                    450.012231
                    450.012912
                    450.013602
                    450.014301
                    450.015010
                    450.015731
                    450.016462
                    450.017202
                    450.017952
                    450.018711
                    450.019477
                    450.020251
                    450.021033
                    450.021825
                    450.022627
                    450.023437
                    450.024254
                    450.025073
                    450.025900
                    450.026743
                    450.027615
                    450.028525
                    450.029465
                    450.030403
                    450.031287
                    450.032070
                    450.032744
                    450.033348
                    450.033959
                    450.034696
                    450.035716
                    450.037161
                    450.039072
                    450.041324
                    450.043654
                    450.045800
                    450.047461
                    450.048213
                    450.048808
                    450.048999
                    450.048114
                    450.045565
                    450.040782
                    450.033080
                    450.021830
                    450.006349
                    449.986354
                    449.962211
                    449.935283
                    449.908119
                    449.883569
                    449.863791
                    449.849509
                    449.840510
                    449.835997
                    449.834866
                    449.836031
                    449.838621
                    449.842037
                    449.845901
                    449.849994
                    449.854202
                    449.858469
                    449.862752
                    449.867045
                    449.871346
                    449.875652
                    449.879963
                    449.884278
                    449.888598
                    449.892923
                    449.897253
                    449.901587
                    449.905927
                    449.910271
                    449.914619
                    449.918972
                    449.923329
                    449.927689
                    449.932053
                    449.936421
                    449.940792
                    449.945166
                    449.949543
                    449.953922
                    449.958303
                    449.962687
                    449.967073
                    449.971460
                    449.975849
                    449.980239
                    449.984630
                    449.989021
                    449.993416
                    449.997807
        </DataArray>
      </CellData>
      <PointData>
        <DataArray type="Int32" Name="node_id" format="ascii">
          0
          1
          2
          3
          4
          5
          6
          7
          8
          9
          10
          11
          12
          13
          14
          15
          16
          17
          18
          19
          20
          21
          22
          23
          24
          25
          26
          27
          28
          29
          30
          31
          32
          33
          34
          35
          36
          37
          38
          39
          40
          41
          42
          43
          44
          45
          46
          47
          48
          49
          50
          51
          52
          53
          54
          55
          56
          57
          58
          59
          60
          61
          62
          63
          64
          65
          66
          67
          68
          69
          70
          71
          72
          73
          74
          75
          76
          77
          78
          79
          80
          81
          82
          83
          84
          85
          86
          87
          88
          89
          90
          91
          92
          93
          94
          95
          96
          97
          98
          99
          100
        </DataArray>
        <DataArray type="Float32" Name="v_l" format="ascii">
                     10.000000
                     10.116554
                     10.232097
                     10.346424
                     10.459519
                     10.571408
                     10.682127
                     10.791711
                     10.900194
                     11.007607
                     11.113981
                     11.219346
                     11.323730
                     11.427161
                     11.529664
                     11.631263
                     11.731983
                     11.831845
                     11.930871
                     12.029085
                     12.126509
                     12.223162
                     12.319050
                     12.414176
                     12.508542
                     12.602171
                     12.695119
                     12.787476
                     12.879335
                     12.970739
                     13.061629
                     13.151816
                     13.241018
                     13.328946
                     13.415442
                     13.500608
                     13.584874
                     13.668978
                     13.753838
                     13.840352
                     13.929193
                     14.020632
                     14.114407
                     14.209693
                     14.305185
                     14.399129
                     14.489451
                     14.574001
                     14.650800
                     14.718189
                     14.774977
                     14.820548
                     14.854872
                     14.878546
                     14.892922
                     14.900132
                     14.902625
                     14.902450
                     14.901442
                     14.899670
                     14.897615
                     14.895748
                     14.894293
                     14.893264
                     14.892583
                     14.892152
                     14.891891
                     14.891736
                     14.891647
                     14.891598
                     14.891570
                     14.891556
                     14.891548
                     14.891545
                     14.891543
                     14.891542