<VTKFile type="UnstructuredGrid" version="0.1" byte_order="LittleEndian">
  <UnstructuredGrid>
    <Piece NumberOfPoints="101" NumberOfCells="100">
      <Points>
        <DataArray type = "Float32" NumberOfComponents="3" format="ascii">
          0.000000 0 0
          0.120000 0 0
          0.240000 0 0
          0.360000 0 0
          0.480000 0 0
          0.600000 0 0
          0.720000 0 0
          0.840000 0 0
          0.960000 0 0
          1.080000 0 0
          1.200000 0 0
          1.320000 0 0
          1.440000 0 0
          1.560000 0 0
          1.680000 0 0
          1.800000 0 0
          1.920000 0 0
          2.040000 0 0
          2.160000 0 0
          2.280000 0 0
          2.400000 0 0
          2.520000 0 0
          2.640000 0 0
          2.760000 0 0
          2.880000 0 0
          3.000000 0 0
          3.120000 0 0
          3.240000 0 0
          3.360000 0 0
          3.480000 0 0
          3.600000 0 0
          3.720000 0 0
          3.840000 0 0
          3.960000 0 0
          4.080000 0 0
          4.200000 0 0
          4.320000 0 0
          4.440000 0 0
          4.560000 0 0
          4.680000 0 0
          4.800000 0 0
          4.920000 0 0
          5.040000 0 0
          5.160000 0 0
          5.280000 0 0
          5.400000 0 0
          5.520000 0 0
          5.640000 0 0
          5.760000 0 0
          5.880000 0 0
          6.000000 0 0
          6.120000 0 0
          6.240000 0 0
          6.360000 0 0
          6.480000 0 0
          6.600000 0 0
          6.720000 0 0
          6.840000 0 0
          6.960000 0 0
          7.080000 0 0
          7.200000 0 0
          7.320000 0 0
          7.440000 0 0
          7.560000 0 0
          7.680000 0 0
          7.800000 0 0
          7.920000 0 0
          8.040000 0 0
          8.160000 0 0
          8.280000 0 0
          8.400000 0 0
          8.520000 0 0
          8.640000 0 0
          8.760000 0 0
          8.880000 0 0
          9.000000 0 0
          9.120000 0 0
          9.240000 0 0
          9.360000 0 0
          9.480000 0 0
          9.600000 0 0
          9.720000 0 0
          9.840000 0 0
          9.960000 0 0
          10.080000 0 0
          10.200000 0 0
          10.320000 0 0
          10.440000 0 0
          10.560000 0 0
          10.680000 0 0
          10.800000 0 0
          10.920000 0 0
          11.040000 0 0
          11.160000 0 0
          11.280000 0 0
          11.400000 0 0
          11.520000 0 0
          11.640000 0 0
          11.760000 0 0
          11.880000 0 0
          12.000000 0 0
        </DataArray>
      </Points>
      <Cells>
        <DataArray type = "Int32" Name="connectivity" format="ascii">
          0 1
          1 2
          2 3
          3 4
          4 5
          5 6
          6 7
          7 8
          8 9
          9 10
          10 11
          11 12
          12 13
          13 14
          14 15
          15 16
          16 17
          17 18
          18 19
          19 20
          20 21
          21 22
          22 23
          23 24
          24 25
          25 26
          26 27
          27 28
          28 29
          29 30
          30 31
          31 32
          32 33
          33 34
          34 35
          35 36
          36 37
          37 38
          38 39
          39 40
          40 41
          41 42
          42 43
          43 44
          44 45
          45 46
          46 47
          47 48
          48 49
          49 50
          50 51
          51 52
          52 53
          53 54
          54 55
          55 56
          56 57
          57 58
          58 59
          59 60
          60 61
          61 62
          62 63
          63 64
          64 65
          65 66
          66 67
          67 68
          68 69
          69 70
          70 71
          71 72
          72 73
          73 74
          74 75
          75 76
          76 77
          77 78
          78 79
          79 80
          80 81
          81 82
          82 83
          83 84
          84 85
          85 86
          86 87
          87 88
          88 89
          89 90
          90 91
          91 92
          92 93
          93 94
          94 95
          95 96
          96 97
          97 98
          98 99
          99 100
        </DataArray>
        <DataArray type = "Int32" Name="offsets" format="ascii">
          2
          4
          6
          8
          10
          12
          14
          16
          18
          20
          22
          24
          26
          28
          30
          32
          34
          36
          38
          40
          42
          44
          46
          48
          50
          52
          54
          56
          58
          60
          62
          64
          66
          68
          70
          72
          74
          76
          78
          80
          82
          84
          86
          88
          90
          92
          94
          96
          98
          100
          102
          104
          106
          108
          110
          112
          114
          116
          118
          120
          122
          124
          126
          128
          130
          132
          134
          136
          138
          140
          142
          144
          146
          148
          150
          152
          154
          156
          158
          160
          162
          164
          166
          168
          170
          172
          174
          176
          178
          180
          182
          184
          186
          188
          190
          192
          194
          196
          198
          200
        </DataArray>
        <DataArray type = "UInt8" Name="types" format="ascii">
          3
          3
          3
          3
          3
          3
          3
          3
          3
          3
          3
          3
          3
          3
          3
          3
          3
          3
          3
          3
          3
          3
          3
          3
          3
          3
          3
          3
          3
          3
          3
          3
          3
          3
          3
          3
          3
          3
          3
          3
          3
          3
          3
          3
          3
          3
          3
          3
          3
          3
          3
          3
          3
          3
          3
          3
          3
          3
          3
          3
          3
          3
          3
          3
          3
          3
          3
          3
          3
          3
          3
          3
          3
          3
          3
          3
          3
          3
          3
          3
          3
          3
          3
          3
          3
          3
          3
          3
          3
          3
          3
          3
          3
          3
          3
          3
          3
          3
          3
          3
        </DataArray>
      </Cells>
      <CellData>
        <DataArray type="Float32" Name="alpha" format="ascii">
                      0.205890
                      0.213989
                      0.222532
                      0.231000
                      0.239284
                      0.247205
                      0.254525
                      0.261452
                      0.268886
                      0.278001
                      0.289012
                      0.299711
                      0.306415
                      0.307538
                      0.305146
                      0.297828
                      0.284703
                      0.267357
                      0.249049
                      0.232904
                      0.220563
                      0.212117
                      0.206800
                      0.203662
                      0.201904
                      0.200960
                      0.200471
                      0.200226
                      0.200106
                      0.200049
                      0.200022
                      0.200010
                      0.200005
                      0.200002
                      0.200001
                      0.200001
                      0.200001
                      0.200001
                      0.200001
                      0.200001
                      0.200001
                      0.200001
                      0.200001
                      0.200001
                      0.200001
                      0.200001
                      0.200001
                      0.200001
                      0.200001
                      0.200001
                      0.200001
                      0.200001
                      0.200001
                      0.200001
                      0.200001
                      0.200001
                      0.200001
                      0.200001
                      0.200001
                      0.200001
                      0.200001
                      0.200001
                      0.200000
                      0.200000
                      0.200000
                      0.200000
                      0.200000
                      0.200000
                      0.200000
                      0.200000
                      0.200000
                      0.200000
                      0.200000
                      0.200000
                      0.200000
                      0.200000
                      0.200000
                      0.200000
                      0.200000
                      0.200000
                      0.200000
                      0.200000
                      0.200000
                      0.200000
                      0.200000
                      0.200000
                      0.200000
                      0.200000
                      0.200000
                      0.200000
                      0.200000
                      0.200000
                      0.200000
                      0.200000
                      0.200000
                      0.200000
                      0.200000
                      0.200000
                      0.200000
                      0.200000
        </DataArray>
        <DataArray type="Float32" Name="p" format="ascii">
                  99918.707480
                  99919.255421
                  99919.781792
                  99920.291229
                  99920.788798
                  99921.250475
                  99921.629199
                  99921.950150
                  99922.363545
                  99923.122774
                  99924.362786
                  99925.508876
                  99925.432875
                  99924.817279
                  99923.613291
                  99921.082160
                  99916.549670
                  99909.759338
                  99901.307770
                  99892.680200
                  99885.506191
                  99880.687229
                  99878.217842
                  99877.579047
                  99878.159654
                  99879.469733
                  99881.180707
                  99883.096172
                  99885.107131
                  99887.155440
                  99889.211493
                  99891.261049
                  99893.297452
                  99895.317645
                  99897.320284
                  99899.304862
                  99901.271267
                  99903.219574
                  99905.149944
                  99907.062571
                  99908.957668
                  99910.835456
                  99912.696160
                  99914.540010
                  99916.367239
                  99918.178085
                  99919.972788
                  99921.751592
                  99923.514745
                  99925.262499
                  99926.995106
                  99928.712825
                  99930.415916
                  99932.104642
                  99933.779271
                  99935.440072
                  99937.087317
                  99938.721281
                  99940.342243
                  99941.950483
                  99943.546284
                  99945.129933
                  99946.701717
                  99948.261927
                  99949.810856
                  99951.348799
                  99952.876054
                  99954.392920
                  99955.899698
                  99957.396692
                  99958.884208
                  99960.362553
                  99961.832035
                  99963.292966
                  99964.745657
                  99966.190424
                  99967.627581
                  99969.057444
                  99970.480333
                  99971.896567
                  99973.306466
                  99974.710352
                  99976.108548
                  99977.501378
                  99978.889167
                  99980.272241
                  99981.650927
                  99983.025551
                  99984.396442
                  99985.763928
                  99987.128339
                  99988.490003
                  99989.849252
                  99991.206414
                  99992.561821
                  99993.915802
                  99995.268685
                  99996.620817
                  99997.972627
                  99999.324249
        </DataArray>
        <DataArray type="Float32" Name="rho_l" format="ascii">
                    889.792968
                    889.792957
                    889.792948
                    889.792947
                    889.792950
                    889.792957
                    889.792963
                    889.792964
                    889.792962
                    889.792957
                    889.792951
                    889.792946
                    889.792944
                    889.792945
                    889.792949
                    889.792955
                    889.792961
                    889.792967
                    889.792969
                    889.792969
                    889.792968
                    889.792967
                    889.792966
                    889.792967
                    889.792967
                    889.792968
                    889.792969
                    889.792970
                    889.792971
                    889.792972
                    889.792973
                    889.792974
                    889.792975
                    889.792976
                    889.792977
                    889.792978
                    889.792979
                    889.792980
                    889.792981
                    889.792982
                    889.792983
                    889.792984
                    889.792985
                    889.792986
                    889.792987
                    889.792988
                    889.792989
                    889.792990
                    889.792991
                    889.792992
                    889.792993
                    889.792994
                    889.792994
                    889.792995
                    889.792996
                    889.792997
                    889.792998
                    889.792999
                    889.792999
                    889.793000
                    889.793001
                    889.793002
                    889.793003
                    889.793004
                    889.793004
                    889.793005
                    889.793006
                    889.793007
                    889.793007
                    889.793008
                    889.793009
                    889.793010
                    889.793010
                    889.793011
                    889.793012
                    889.793013
                    889.793013
                    889.793014
                    889.793015
                    889.793016
                    889.793016
                    889.793017
                    889.793018
                    889.793018
                    889.793019
                    889.793020
                    889.793021
                    889.793021
                    889.793022
                    889.793023
                    889.793023
                    889.793024
                    889.793025
                    889.793025
                    889.793026
                    889.793027
                    889.793028
                    889.793028
                    889.793029
                    889.793030
        </DataArray>
        <DataArray type="Float32" Name="rho_g" format="ascii">
                      0.484257
                      0.484260
                      0.484262
                      0.484265
                      0.484267
                      0.484269
                      0.484270
                      0.484272
                      0.484273
                      0.484276
                      0.484281
                      0.484285
                      0.484284
                      0.484281
                      0.484277
                      0.484267
                      0.484250
                      0.484225
                      0.484194
                      0.484162
                      0.484136
                      0.484119
                      0.484110
                      0.484108
                      0.484110
                      0.484116
                      0.484122
                      0.484130
                      0.484137
                      0.484145
                      0.484153
                      0.484161
                      0.484169
                      0.484177
                      0.484184
                      0.484192
                      0.484200
                      0.484207
                      0.484215
                      0.484222
                      0.484229
                      0.484237
                      0.484244
                      0.484251
                      0.484258
                      0.484265
                      0.484272
                      0.484279
                      0.484286
                      0.484293
                      0.484299
                      0.484306
                      0.484313
                      0.484319
                      0.484326
                      0.484332
                      0.484339
                      0.484345
                      0.484351
                      0.484358
                      0.484364
                      0.484370
                      0.484376
                      0.484382
                      0.484388
                      0.484394
                      0.484400
                      0.484406
                      0.484412
                      0.484418
                      0.484424
                      0.484430
                      0.484435
                      0.484441
                      0.484447
                      0.484453
                      0.484458
                      0.484464
                      0.484469
                      0.484475
                      0.484480
                      0.484486
                      0.484491
                      0.484497
                      0.484502
                      0.484508
                      0.484513
                      0.484519
                      0.484524
                      0.484529
                      0.484535
                      0.484540
                      0.484546
                      0.484551
                      0.484556
                      0.484561
                      0.484566
                      0.484572
                      0.484577
                      0.484582
        </DataArray>
        <DataArray type="Float32" Name="T_l" format="ascii">
                    450.000006
                    450.000017
                    450.000026
                    450.000028
                    450.000025
                    450.000019
                    450.000014
                    450.000012
                    450.000014
                    450.000019
                    450.000026
                    450.000032
                    450.000033
                    450.000032
                    450.000028
                    450.000021
                    450.000011
                    450.000002
                    449.999995
                    449.999990
                    449.999986
                    449.999984
                    449.999983
                    449.999982
                    449.999982
                    449.999982
                    449.999982
                    449.999982
                    449.999983
                    449.999983
                    449.999983
                    449.999984
                    449.999984
                    449.999984
                    449.999985
                    449.999985
                    449.999985
                    449.999985
                    449.999986
                    449.999986
                    449.999986
                    449.999987
                    449.999987
                    449.999987
                    449.999987
                    449.999988
                    449.999988
                    449.999988
                    449.999988
                    449.999989
                    449.999989
                    449.999989
                    449.999989
                    449.999990
                    449.999990
                    449.999990
                    449.999990
                    449.999991
                    449.999991
                    449.999991
                    449.999991
                    449.999992
                    449.999992
                    449.999992
                    449.999992
                    449.999993
                    449.999993
                    449.999993
                    449.999993
                    449.999993
                    449.999994
                    449.999994
                    449.999994
                    449.999994
                    449.999995
                    449.999995
                    449.999995
                    449.999995
                    449.999995
                    449.999996
                    449.999996
                    449.999996
                    449.999996
                    449.999996
                    449.999997
                    449.999997
                    449.999997
                    449.999997
                    449.999997
                    449.999998
                    449.999998
                    449.999998
                    449.999998
                    449.999998
                    449.999999
                    449.999999
                    449.999999
                    449.999999
                    450.000000
                    450.000000
        </DataArray>
        <DataArray type="Float32" Name="T_g" format="ascii">
                    449.937788
                    449.937513
                    449.937415
                    449.937532
                    449.937792
                    449.938099
                    449.938351
                    449.938569
                    449.938920
                    449.939704
                    449.941102
                    449.942500
                    449.942670
                    449.942307
                    449.941303
                    449.938814
                    449.934077
                    449.926810
                    449.917676
                    449.908269
                    449.900342
                    449.894909
                    449.892016
                    449.891072
                    449.891330
                    449.892455
                    449.893983
                    449.895732
                    449.897582
                    449.899472
                    449.901370
                    449.903261
                    449.905137
                    449.906996
                    449.908836
                    449.910656
                    449.912457
                    449.914239
                    449.916001
                    449.917743
                    449.919467
                    449.921173
                    449.922859
                    449.924528
                    449.926179
                    449.927812
                    449.929427
                    449.931026
                    449.932607
                    449.934172
                    449.935721
                    449.937254
                    449.938771
                    449.940272
                    449.941758
                    449.943229
                    449.944686
                    449.946129
                    449.947557
                    449.948972
                    449.950373
                    449.951761
                    449.953136
                    449.954499
                    449.955850
                    449.957189
                    449.958517
                    449.959833
                    449.961139
                    449.962434
                    449.963718
                    449.964993
                    449.966259
                    449.967515
                    449.968762
                    449.970001
                    449.971232
                    449.972455
                    449.973670
                    449.974878
                    449.976080
                    449.977275
                    449.978464
                    449.979647
                    449.980825
                    449.981998
                    449.983166
                    449.984330
                    449.985488
                    449.986642
                    449.987790
                    449.988938
                    449.990095
                    449.991278
                    449.992502
                    449.993775
                    449.995093
                    449.996453
                    449.997851
                    449.999281
        </DataArray>
      </CellData>
      <PointData>
        <DataArray type="Int32" Name="node_id" format="ascii">
          0
          1
          2
          3
          4
          5
          6
          7
          8
          9
          10
          11
          12
          13
          14
          15
          16
          17
          18
          19
          20
          21
          22
          23
          24
          25
          26
          27
          28
          29
          30
          31
          32
          33
          34
          35
          36
          37
          38
          39
          40
          41
          42
          43
          44
          45
          46
          47
          48
          49
          50
          51
          52
          53
          54
          55
          56
          57
          58
          59
          60
          61
          62
          63
          64
          65
          66
          67
          68
          69
          70
          71
          72
          73
          74
          75
          76
          77
          78
          79
          80
          81
          82
          83
          84
          85
          86
          87
          88
          89
          90
          91
          92
          93
          94
          95
          96
          97
          98
          99
          100
        </DataArray>
        <DataArray type="Float32" Name="v_l" format="ascii">
                     10.000000
                     10.116557
                     10.232099
                     10.346420
                     10.459537
                     10.571527
                     10.682323
                     10.791605
                     10.899091
                     11.005214
                     11.111534
                     11.220178
                     11.332344
                     11.446813
                     11.559490
                     11.664104
                     11.754231
                     11.825616
                     11.877412
                     11.911840
                     11.932884
                     11.944769
                     11.951026
                     11.954115
                     11.955554
                     11.956188
                     11.956452
                     11.956557
                     11.956592
                     11.956602
                     11.956603
                     11.956603
                     11.956601
                     11.956599
                     11.956597
                     11.956596
                     11.956594
                     11.956592
                     11.956591
                     11.956590
                     11.956588
                     11.956587
                     11.956586
                     11.956584
                     11.956583
                     11.956582
                     11.956580
                     11.956579
                     11.956578
                     11.956577
                     11.956575
                     11.956574
                     11.956573
                     11.956572
                     11.956571
                     11.956570
                     11.956568
                     11.956567
                     11.956566
                     11.956565
                     11.956564
                     11.956563
                     11.956562
                     11.956561
                     11.956560
                     11.956559
                     11.956558
                     11.956557
                     11.956556
                     11.956555
                     11.956554
                     11.956554
                     11.956553
                     11.956552
                     11.956551
                     11.956550