<VTKFile type="UnstructuredGrid" version="0.1" byte_order="LittleEndian">
  <UnstructuredGrid>
    <Piece NumberOfPoints="97" NumberOfCells="96">
      <Points>
        <DataArray type = "Float32" NumberOfComponents="3" format="ascii">
          0.000000 0 0
          0.125000 0 0
          0.250000 0 0
          0.375000 0 0
          0.500000 0 0
          0.625000 0 0
          0.750000 0 0
          0.875000 0 0
          1.000000 0 0
          1.125000 0 0
          1.250000 0 0
          1.375000 0 0
          1.500000 0 0
          1.625000 0 0
          1.750000 0 0
          1.875000 0 0
          2.000000 0 0
          2.125000 0 0
          2.250000 0 0
          2.375000 0 0
          2.500000 0 0
          2.625000 0 0
          2.750000 0 0
          2.875000 0 0
          3.000000 0 0
          3.125000 0 0
          3.250000 0 0
          3.375000 0 0
          3.500000 0 0
          3.625000 0 0
          3.750000 0 0
          3.875000 0 0
          4.000000 0 0
          4.125000 0 0
          4.250000 0 0
          4.375000 0 0
          4.500000 0 0
          4.625000 0 0
          4.750000 0 0
          4.875000 0 0
          5.000000 0 0
          5.125000 0 0
          5.250000 0 0
          5.375000 0 0
          5.500000 0 0
          5.625000 0 0
          5.750000 0 0
          5.875000 0 0
          6.000000 0 0
          6.125000 0 0
          6.250000 0 0
          6.375000 0 0
          6.500000 0 0
          6.625000 0 0
          6.750000 0 0
          6.875000 0 0
          7.000000 0 0
          7.125000 0 0
          7.250000 0 0
          7.375000 0 0
          7.500000 0 0
          7.625000 0 0
          7.750000 0 0
          7.875000 0 0
          8.000000 0 0
          8.125000 0 0
          8.250000 0 0
          8.375000 0 0
          8.500000 0 0
          8.625000 0 0
          8.750000 0 0
          8.875000 0 0
          9.000000 0 0
          9.125000 0 0
          9.250000 0 0
          9.375000 0 0
          9.500000 0 0
          9.625000 0 0
          9.750000 0 0
          9.875000 0 0
          10.000000 0 0
          10.125000 0 0
          10.250000 0 0
          10.375000 0 0
          10.500000 0 0
          10.625000 0 0
          10.750000 0 0
          10.875000 0 0
          11.000000 0 0
          11.125000 0 0
          11.250000 0 0
          11.375000 0 0
          11.500000 0 0
          11.625000 0 0
          11.750000 0 0
          11.875000 0 0
          12.000000 0 0
        </DataArray>
      </Points>
      <Cells>
        <DataArray type = "Int32" Name="connectivity" format="ascii">
          0 1
          1 2
          2 3
          3 4
          4 5
          5 6
          6 7
          7 8
          8 9
          9 10
          10 11
          11 12
          12 13
          13 14
          14 15
          15 16
          16 17
          17 18
          18 19
          19 20
          20 21
          21 22
          22 23
          23 24
          24 25
          25 26
          26 27
          27 28
          28 29
          29 30
          30 31
          31 32
          32 33
          33 34
          34 35
          35 36
          36 37
          37 38
          38 39
          39 40
          40 41
          41 42
          42 43
          43 44
          44 45
          45 46
          46 47
          47 48
          48 49
          49 50
          50 51
          51 52
          52 53
          53 54
          54 55
          55 56
          56 57
          57 58
          58 59
          59 60
          60 61
          61 62
          62 63
          63 64
          64 65
          65 66
          66 67
          67 68
          68 69
          69 70
          70 71
          71 72
          72 73
          73 74
          74 75
          75 76
          76 77
          77 78
          78 79
          79 80
          80 81
          81 82
          82 83
          83 84
          84 85
          85 86
          86 87
          87 88
          88 89
          89 90
          90 91
          91 92
          92 93
          93 94
          94 95
          95 96
        </DataArray>
        <DataArray type = "Int32" Name="offsets" format="ascii">
          2
          4
          6
          8
          10
          12
          14
          16
          18
          20
          22
          24
          26
          28
          30
          32
          34
          36
          38
          40
          42
          44
          46
          48
          50
          52
          54
          56
          58
          60
          62
          64
          66
          68
          70
          72
          74
          76
          78
          80
          82
          84
          86
          88
          90
          92
          94
          96
          98
          100
          102
          104
          106
          108
          110
          112
          114
          116
          118
          120
          122
          124
          126
          128
          130
          132
          134
          136
          138
          140
          142
          144
          146
          148
          150
          152
          154
          156
          158
          160
          162
          164
          166
          168
          170
          172
          174
          176
          178
          180
          182
          184
          186
          188
          190
          192
        </DataArray>
        <DataArray type = "UInt8" Name="types" format="ascii">
          3
          3
          3
          3
          3
          3
          3
          3
          3
          3
          3
          3
          3
          3
          3
          3
          3
          3
          3
          3
          3
          3
          3
          3
          3
          3
          3
          3
          3
          3
          3
          3
          3
          3
          3
          3
          3
          3
          3
          3
          3
          3
          3
          3
          3
          3
          3
          3
          3
          3
          3
          3
          3
          3
          3
          3
          3
          3
          3
          3
          3
          3
          3
          3
          3
          3
          3
          3
          3
          3
          3
          3
          3
          3
          3
          3
          3
          3
          3
          3
          3
          3
          3
          3
          3
          3
          3
          3
          3
          3
          3
          3
          3
          3
          3
          3
        </DataArray>
      </Cells>
      <CellData>
        <DataArray type="Float32" Name="alpha" format="ascii">
                      0.203367
                      0.203630
                      0.202683
                      0.201657
                      0.200920
                      0.200474
                      0.200232
                      0.200108
                      0.200049
                      0.200021
                      0.200009
                      0.200004
                      0.200002
                      0.200001
                      0.200001
                      0.200000
                      0.200000
                      0.200000
                      0.200000
                      0.200000
                      0.200000
                      0.200000
                      0.200000
                      0.200000
                      0.200000
                      0.200000
                      0.200000
                      0.200000
                      0.200000
                      0.200000
                      0.200000
                      0.200000
                      0.200000
                      0.200000
                      0.200000
                      0.200000
                      0.200000
                      0.200000
                      0.200000
                      0.200000
                      0.200000
                      0.200000
                      0.200000
                      0.200000
                      0.200000
                      0.200000
                      0.200000
                      0.200000
                      0.200000
                      0.200000
                      0.200000
                      0.200000
                      0.200000
                      0.200000
                      0.200000
                      0.200000
                      0.200000
                      0.200000
                      0.200000
                      0.200000
                      0.200000
                      0.200000
                      0.200000
                      0.200000
                      0.200000
                      0.200000
                      0.200000
                      0.200000
                      0.200000
                      0.200000
                      0.200000
                      0.200000
                      0.200000
                      0.200000
                      0.200000
                      0.200000
                      0.200000
                      0.200000
                      0.200000
                      0.200000
                      0.200000
                      0.200000
                      0.200000
                      0.200000
                      0.200000
                      0.200000
                      0.200000
                      0.200000
                      0.200000
                      0.200000
                      0.200000
                      0.200000
                      0.200000
                      0.200000
                      0.200000
                      0.200000
        </DataArray>
        <DataArray type="Float32" Name="p_l" format="ascii">
                  98294.232755
                  98589.879205
                  98867.745767
                  99099.812606
                  99273.981274
                  99393.356953
                  99469.269983
                  99514.829703
                  99541.217911
                  99556.469399
                  99565.703503
                  99571.891270
                  99576.629938
                  99580.724294
                  99584.557738
                  99588.304149
                  99592.039023
                  99595.793896
                  99599.581503
                  99603.406842
                  99607.271839
                  99611.177235
                  99615.123323
                  99619.110233
                  99623.138028
                  99627.206748
                  99631.316413
                  99635.467035
                  99639.658612
                  99643.891134
                  99648.164574
                  99652.478896
                  99656.834047
                  99661.229959
                  99665.666550
                  99670.143718
                  99674.661348
                  99679.219301
                  99683.817423
                  99688.455538
                  99693.133451
                  99697.850945
                  99702.607781
                  99707.403698
                  99712.238414
                  99717.111623
                  99722.022995
                  99726.972179
                  99731.958797
                  99736.982452
                  99742.042720
                  99747.139154
                  99752.271284
                  99757.438617
                  99762.640637
                  99767.876805
                  99773.146560
                  99778.449319
                  99783.784478
                  99789.151412
                  99794.549475
                  99799.978002
                  99805.436310
                  99810.923697
                  99816.439443
                  99821.982813
                  99827.553054
                  99833.149398
                  99838.771066
                  99844.417261
                  99850.087176
                  99855.779992
                  99861.494877
                  99867.230992
                  99872.987487
                  99878.763501
                  99884.558168
                  99890.370614
                  99896.199957
                  99902.045311
                  99907.905783
                  99913.780476
                  99919.668489
                  99925.568915
                  99931.480846
                  99937.403370
                  99943.335573
                  99949.276539
                  99955.225350
                  99961.181085
                  99967.142824
                  99973.109649
                  99979.080650
                  99985.054940
                  99991.031691
                  99997.010186
        </DataArray>
        <DataArray type="Float32" Name="p_g" format="ascii">
                  99548.385417
                  99548.886440
                  99549.543805
                  99550.689650
                  99552.451832
                  99554.770970
                  99557.511828
                  99560.541314
                  99563.758599
                  99567.097586
                  99570.519080
                  99574.001592
                  99577.534099
                  99581.111271
                  99584.730679
                  99588.391281
                  99592.092671
                  99595.834718
                  99599.617406
                  99603.440767
                  99607.304844
                  99611.209686
                  99615.155339
                  99619.141844
                  99623.169237
                  99627.237546
                  99631.346791
                  99635.496980
                  99639.688114
                  99643.920181
                  99648.193157
                  99652.507005
                  99656.861673
                  99661.257093
                  99665.693184
                  99670.169846
                  99674.686962
                  99679.244396
                  99683.841993
                  99688.479578
                  99693.156957
                  99697.873913
                  99702.630209
                  99707.425584
                  99712.259756
                  99717.132420
                  99722.043247
                  99726.991886
                  99731.977961
                  99737.001074
                  99742.060802
                  99747.156699
                  99752.288296
                  99757.455100
                  99762.656596
                  99767.892245
                  99773.161486
                  99778.463739
                  99783.798397
                  99789.164838
                  99794.562416
                  99799.990466
                  99805.448306
                  99810.935233
                  99816.450529
                  99821.993457
                  99827.563267
                  99833.159190
                  99838.780446
                  99844.426240
                  99850.095765
                  99855.788201
                  99861.502717
                  99867.238473
                  99872.994619
                  99878.770295
                  99884.564634
                  99890.376761
                  99896.205796
                  99902.050852
                  99907.911034
                  99913.785446
                  99919.673186
                  99925.573347
                  99931.485021
                  99937.407296
                  99943.339256
                  99949.279985
                  99955.228563
                  99961.184071
                  99967.145586
                  99973.112184
                  99979.082943
                  99985.056937
                  99991.033240
                  99997.010927
        </DataArray>
        <DataArray type="Float32" Name="rho_l" format="ascii">
                    999.999829
                    999.999859
                    999.999887
                    999.999910
                    999.999927
                    999.999939
                    999.999947
                    999.999951
                    999.999954
                    999.999956
                    999.999957
                    999.999957
                    999.999958
                    999.999958
                    999.999958
                    999.999959
                    999.999959
                    999.999960
                    999.999960
                    999.999960
                    999.999961
                    999.999961
                    999.999962
                    999.999962
                    999.999962
                    999.999963
                    999.999963
                    999.999964
                    999.999964
                    999.999964
                    999.999965
                    999.999965
                    999.999966
                    999.999966
                    999.999967
                    999.999967
                    999.999967
                    999.999968
                    999.999968
                    999.999969
                    999.999969
                    999.999970
                    999.999970
                    999.999971
                    999.999971
                    999.999972
                    999.999972
                    999.999973
                    999.999973
                    999.999974
                    999.999974
                    999.999975
                    999.999975
                    999.999976
                    999.999976
                    999.999977
                    999.999977
                    999.999978
                    999.999978
                    999.999979
                    999.999979
                    999.999980
                    999.999981
                    999.999981
                    999.999982
                    999.999982
                    999.999983
                    999.999983
                    999.999984
                    999.999984
                    999.999985
                    999.999986
                    999.999986
                    999.999987
                    999.999987
                    999.999988
                    999.999988
                    999.999989
                    999.999990
                    999.999990
                    999.999991
                    999.999991
                    999.999992
                    999.999993
                    999.999993
                    999.999994
                    999.999994
                    999.999995
                    999.999996
                    999.999996
                    999.999997
                    999.999997
                    999.999998
                    999.999999
                    999.999999
                   1000.000000
        </DataArray>
        <DataArray type="Float32" Name="rho_g" format="ascii">
                      0.499548
                      0.499549
                      0.499550
                      0.499551
                      0.499552
                      0.499555
                      0.499558
                      0.499561
                      0.499564
                      0.499567
                      0.499571
                      0.499574
                      0.499578
                      0.499581
                      0.499585
                      0.499588
                      0.499592
                      0.499596
                      0.499600
                      0.499603
                      0.499607
                      0.499611
                      0.499615
                      0.499619
                      0.499623
                      0.499627
                      0.499631
                      0.499635
                      0.499640
                      0.499644
                      0.499648
                      0.499653
                      0.499657
                      0.499661
                      0.499666
                      0.499670
                      0.499675
                      0.499679
                      0.499684
                      0.499688
                      0.499693
                      0.499698
                      0.499703
                      0.499707
                      0.499712
                      0.499717
                      0.499722
                      0.499727
                      0.499732
                      0.499737
                      0.499742
                      0.499747
                      0.499752
                      0.499757
                      0.499763
                      0.499768
                      0.499773
                      0.499778
                      0.499784
                      0.499789
                      0.499795
                      0.499800
                      0.499805
                      0.499811
                      0.499816
                      0.499822
                      0.499828
                      0.499833
                      0.499839
                      0.499844
                      0.499850
                      0.499856
                      0.499862
                      0.499867
                      0.499873
                      0.499879
                      0.499885
                      0.499890
                      0.499896
                      0.499902
                      0.499908
                      0.499914
                      0.499920
                      0.499926
                      0.499931
                      0.499937
                      0.499943
                      0.499949
                      0.499955
                      0.499961
                      0.499967
                      0.499973
                      0.499979
                      0.499985
                      0.499991
                      0.499997
        </DataArray>
        <DataArray type="Float32" Name="mu" format="ascii">
                      0.000316
                      0.000316
                      0.000316
                      0.000316
                      0.000316
                      0.000316
                      0.000316
                      0.000316
                      0.000316
                      0.000316
                      0.000316
                      0.000316
                      0.000316
                      0.000316
                      0.000316
                      0.000316
                      0.000316
                      0.000316
                      0.000316
                      0.000316
                      0.000316
                      0.000316
                      0.000316
                      0.000316
                      0.000316
                      0.000316
                      0.000316
                      0.000316
                      0.000316
                      0.000316
                      0.000316
                      0.000316
                      0.000316
                      0.000316
                      0.000316
                      0.000316
                      0.000316
                      0.000316
                      0.000316
                      0.000316
                      0.000316
                      0.000316
                      0.000316
                      0.000316
                      0.000316
                      0.000316
                      0.000316
                      0.000316
                      0.000316
                      0.000316
                      0.000316
                      0.000316
                      0.000316
                      0.000316
                      0.000316
                      0.000316
                      0.000316
                      0.000316
                      0.000316
                      0.000316
                      0.000316
                      0.000316
                      0.000316
                      0.000316
                      0.000316
                      0.000316
                      0.000316
                      0.000316
                      0.000316
                      0.000316
                      0.000316
                      0.000316
                      0.000316
                      0.000316
                      0.000316
                      0.000316
                      0.000316
                      0.000316
                      0.000316
                      0.000316
                      0.000316
                      0.000316
                      0.000316
                      0.000316
                      0.000316
                      0.000316
                      0.000316
                      0.000316
                      0.000316
                      0.000316
                      0.000316
                      0.000316
                      0.000316
                      0.000316
                      0.000316
                      0.000316
        </DataArray>
        <DataArray type="Float32" Name="p_hat" format="ascii">
                  99548.187328
                  99548.734968
                  99549.436117
                  99550.618435
                  99552.407848
                  99554.745475
                  99557.497891
                  99560.534094
                  99563.755038
                  99567.095907
                  99570.518320
                  99574.001259
                  99577.533956
                  99581.111210
                  99584.730652
                  99588.391267
                  99592.092662
                  99595.834711
                  99599.617401
                  99603.440762
                  99607.304839
                  99611.209681
                  99615.155334
                  99619.141839
                  99623.169232
                  99627.237542
                  99631.346786
                  99635.496975
                  99639.688109
                  99643.920177
                  99648.193153
                  99652.507001
                  99656.861668
                  99661.257089
                  99665.693180
                  99670.169842
                  99674.686958
                  99679.244392
                  99683.841989
                  99688.479574
                  99693.156953
                  99697.873910
                  99702.630205
                  99707.425580
                  99712.259753
                  99717.132416
                  99722.043244
                  99726.991883
                  99731.977958
                  99737.001071
                  99742.060799
                  99747.156696
                  99752.288293
                  99757.455097
                  99762.656593
                  99767.892242
                  99773.161484
                  99778.463736
                  99783.798395
                  99789.164836
                  99794.562414
                  99799.990464
                  99805.448304
                  99810.935231
                  99816.450527
                  99821.993456
                  99827.563265
                  99833.159189
                  99838.780445
                  99844.426239
                  99850.095764
                  99855.788200
                  99861.502716
                  99867.238472
                  99872.994618
                  99878.770294
                  99884.564633
                  99890.376761
                  99896.205796
                  99902.050851
                  99907.911033
                  99913.785445
                  99919.673185
                  99925.573346
                  99931.485021
                  99937.407295
                  99943.339256
                  99949.279984
                  99955.228563
                  99961.184071
                  99967.145585
                  99973.112184
                  99979.082942
                  99985.056936
                  99991.033240
                  99997.010927
        </DataArray>
      </CellData>
      <PointData>
        <DataArray type="Int32" Name="node_id" format="ascii">
          0
          1
          2
          3
          4
          5
          6
          7
          8
          9
          10
          11
          12
          13
          14
          15
          16
          17
          18
          19
          20
          21
          22
          23
          24
          25
          26
          27
          28
          29
          30
          31
          32
          33
          34
          35
          36
          37
          38
          39
          40
          41
          42
          43
          44
          45
          46
          47
          48
          49
          50
          51
          52
          53
          54
          55
          56
          57
          58
          59
          60
          61
          62
          63
          64
          65
          66
          67
          68
          69
          70
          71
          72
          73
          74
          75
          76
          77
          78
          79
          80
          81
          82
          83
          84
          85
          86
          87
          88
          89
          90
          91
          92
          93
          94
          95
          96
        </DataArray>
        <DataArray type="Float32" Name="v_l" format="ascii">
                     10.000000
                     10.070673
                     10.118953
                     10.150238
                     10.169807
                     10.181583
                     10.188351
                     10.192049
                     10.193971
                     10.194922
                     10.195372