<VTKFile type="UnstructuredGrid" version="0.1" byte_order="LittleEndian">
  <UnstructuredGrid>
    <Piece NumberOfPoints="101" NumberOfCells="100">
      <Points>
        <DataArray type = "Float32" NumberOfComponents="3" format="ascii">
          0.000000 0 0
          0.120000 0 0
          0.240000 0 0
          0.360000 0 0
          0.480000 0 0
          0.600000 0 0
          0.720000 0 0
          0.840000 0 0
          0.960000 0 0
          1.080000 0 0
          1.200000 0 0
          1.320000 0 0
          1.440000 0 0
          1.560000 0 0
          1.680000 0 0
          1.800000 0 0
          1.920000 0 0
          2.040000 0 0
          2.160000 0 0
          2.280000 0 0
          2.400000 0 0
          2.520000 0 0
          2.640000 0 0
          2.760000 0 0
          2.880000 0 0
          3.000000 0 0
          3.120000 0 0
          3.240000 0 0
          3.360000 0 0
          3.480000 0 0
          3.600000 0 0
          3.720000 0 0
          3.840000 0 0
          3.960000 0 0
          4.080000 0 0
          4.200000 0 0
          4.320000 0 0
          4.440000 0 0
          4.560000 0 0
          4.680000 0 0
          4.800000 0 0
          4.920000 0 0
          5.040000 0 0
          5.160000 0 0
          5.280000 0 0
          5.400000 0 0
          5.520000 0 0
          5.640000 0 0
          5.760000 0 0
          5.880000 0 0
          6.000000 0 0
          6.120000 0 0
          6.240000 0 0
          6.360000 0 0
          6.480000 0 0
          6.600000 0 0
          6.720000 0 0
          6.840000 0 0
          6.960000 0 0
          7.080000 0 0
          7.200000 0 0
          7.320000 0 0
          7.440000 0 0
          7.560000 0 0
          7.680000 0 0
          7.800000 0 0
          7.920000 0 0
          8.040000 0 0
          8.160000 0 0
          8.280000 0 0
          8.400000 0 0
          8.520000 0 0
          8.640000 0 0
          8.760000 0 0
          8.880000 0 0
          9.000000 0 0
          9.120000 0 0
          9.240000 0 0
          9.360000 0 0
          9.480000 0 0
          9.600000 0 0
          9.720000 0 0
          9.840000 0 0
          9.960000 0 0
          10.080000 0 0
          10.200000 0 0
          10.320000 0 0
          10.440000 0 0
          10.560000 0 0
          10.680000 0 0
          10.800000 0 0
          10.920000 0 0
          11.040000 0 0
          11.160000 0 0
          11.280000 0 0
          11.400000 0 0
          11.520000 0 0
          11.640000 0 0
          11.760000 0 0
          11.880000 0 0
          12.000000 0 0
        </DataArray>
      </Points>
      <Cells>
        <DataArray type = "Int32" Name="connectivity" format="ascii">
          0 1
          1 2
          2 3
          3 4
          4 5
          5 6
          6 7
          7 8
          8 9
          9 10
          10 11
          11 12
          12 13
          13 14
          14 15
          15 16
          16 17
          17 18
          18 19
          19 20
          20 21
          21 22
          22 23
          23 24
          24 25
          25 26
          26 27
          27 28
          28 29
          29 30
          30 31
          31 32
          32 33
          33 34
          34 35
          35 36
          36 37
          37 38
          38 39
          39 40
          40 41
          41 42
          42 43
          43 44
          44 45
          45 46
          46 47
          47 48
          48 49
          49 50
          50 51
          51 52
          52 53
          53 54
          54 55
          55 56
          56 57
          57 58
          58 59
          59 60
          60 61
          61 62
          62 63
          63 64
          64 65
          65 66
          66 67
          67 68
          68 69
          69 70
          70 71
          71 72
          72 73
          73 74
          74 75
          75 76
          76 77
          77 78
          78 79
          79 80
          80 81
          81 82
          82 83
          83 84
          84 85
          85 86
          86 87
          87 88
          88 89
          89 90
          90 91
          91 92
          92 93
          93 94
          94 95
          95 96
          96 97
          97 98
          98 99
          99 100
        </DataArray>
        <DataArray type = "Int32" Name="offsets" format="ascii">
          2
          4
          6
          8
          10
          12
          14
          16
          18
          20
          22
          24
          26
          28
          30
          32
          34
          36
          38
          40
          42
          44
          46
          48
          50
          52
          54
          56
          58
          60
          62
          64
          66
          68
          70
          72
          74
          76
          78
          80
          82
          84
          86
          88
          90
          92
          94
          96
          98
          100
          102
          104
          106
          108
          110
          112
          114
          116
          118
          120
          122
          124
          126
          128
          130
          132
          134
          136
          138
          140
          142
          144
          146
          148
          150
          152
          154
          156
          158
          160
          162
          164
          166
          168
          170
          172
          174
          176
          178
          180
          182
          184
          186
          188
          190
          192
          194
          196
          198
          200
        </DataArray>
        <DataArray type = "UInt8" Name="types" format="ascii">
          3
          3
          3
          3
          3
          3
          3
          3
          3
          3
          3
          3
          3
          3
          3
          3
          3
          3
          3
          3
          3
          3
          3
          3
          3
          3
          3
          3
          3
          3
          3
          3
          3
          3
          3
          3
          3
          3
          3
          3
          3
          3
          3
          3
          3
          3
          3
          3
          3
          3
          3
          3
          3
          3
          3
          3
          3
          3
          3
          3
          3
          3
          3
          3
          3
          3
          3
          3
          3
          3
          3
          3
          3
          3
          3
          3
          3
          3
          3
          3
          3
          3
          3
          3
          3
          3
          3
          3
          3
          3
          3
          3
          3
          3
          3
          3
          3
          3
          3
          3
        </DataArray>
      </Cells>
      <CellData>
        <DataArray type="Float32" Name="alpha" format="ascii">
                      0.209197
                      0.218086
                      0.226682
                      0.235002
                      0.243060
                      0.250869
                      0.258442
                      0.265791
                      0.272926
                      0.279858
                      0.286596
                      0.293148
                      0.299524
                      0.305730
                      0.311773
                      0.317660
                      0.323396
                      0.328984
                      0.334428
                      0.339729
                      0.344887
                      0.349897
                      0.354755
                      0.359451
                      0.363972
                      0.368302
                      0.372422
                      0.376306
                      0.379925
                      0.383250
                      0.386243
                      0.388869
                      0.391088
                      0.392861
                      0.394149
                      0.394915
                      0.395123
                      0.394745
                      0.393753
                      0.392130
                      0.389863
                      0.386949
                      0.383391
                      0.379203
                      0.374408
                      0.369037
                      0.363130
                      0.356735
                      0.349909
                      0.342712
                      0.335213
                      0.327483
                      0.319594
                      0.311622
                      0.303640
                      0.295720
                      0.287929
                      0.280332
                      0.272986
                      0.265940
                      0.259237
                      0.252912
                      0.246991
                      0.241491
                      0.236423
                      0.231788
                      0.227582
                      0.223793
                      0.220407
                      0.217402
                      0.214755
                      0.212440
                      0.210430
                      0.208696
                      0.207211
                      0.205947
                      0.204879
                      0.203981
                      0.203232
                      0.202611
                      0.202098
                      0.201678
                      0.201335
                      0.201058
                      0.200834
                      0.200654
                      0.200511
                      0.200397
                      0.200308
                      0.200237
                      0.200182
                      0.200139
                      0.200106
                      0.200081
                      0.200061
                      0.200046
                      0.200035
                      0.200026
                      0.200019
                      0.200015
        </DataArray>
        <DataArray type="Float32" Name="p" format="ascii">
                 100089.408122
                 100089.979040
                 100090.550032
                 100091.121096
                 100091.692229
                 100092.263431
                 100092.834699
                 100093.406033
                 100093.977432
                 100094.548893
                 100095.120414
                 100095.691986
                 100096.263598
                 100096.835221
                 100097.406807
                 100097.978268
                 100098.549457
                 100099.120135
                 100099.689930
                 100100.258287
                 100100.824402
                 100101.387147
                 100101.944993
                 100102.495913
                 100103.037301
                 100103.565872
                 100104.077583
                 100104.567553
                 100105.029992
                 100105.458142
                 100105.844223
                 100106.179387
                 100106.453676
                 100106.655978
                 100106.773978
                 100106.794114
                 100106.701514
                 100106.479942
                 100106.111728
                 100105.577717
                 100104.857222
                 100103.928005
                 100102.766296
                 100101.346877
                 100099.643241
                 100097.627870
                 100095.272642
                 100092.549419
                 100089.430830
                 100085.891285
                 100081.908232
                 100077.463660
                 100072.545821
                 100067.151126
                 100061.286100
                 100054.969285
                 100048.232892
                 100041.123998
                 100033.705068
                 100026.053610
                 100018.260779
                 100010.428911
                 100002.667841
                  99995.090534
                  99987.808285
                  99980.925733
                  99974.536148
                  99968.717546
                  99963.529910
                  99959.013698
                  99955.189692
                  99952.060053
                  99949.610351
                  99947.812282
                  99946.626734
                  99946.006928
                  99945.901386
                  99946.256550
                  99947.018979
                  99948.137048
                  99949.562198
                  99951.249755
                  99953.159391
                  99955.255297
                  99957.506134
                  99959.884823
                  99962.368242
                  99964.936848
                  99967.574284
                  99970.266981
                  99973.003775
                  99975.775550
                  99978.574919
                  99981.395933
                  99984.233838
                  99987.084854
                  99989.945995
                  99992.814946
                  99995.689777
                  99998.556869
        </DataArray>
        <DataArray type="Float32" Name="rho_l" format="ascii">
                    889.793087
                    889.793085
                    889.793084
                    889.793082
                    889.793081
                    889.793080
                    889.793078
                    889.793077
                    889.793076
                    889.793075
                    889.793074
                    889.793072
                    889.793071
                    889.793070
                    889.793069
                    889.793068
                    889.793067
                    889.793067
                    889.793066
                    889.793065
                    889.793064
                    889.793063
                    889.793062
                    889.793062
                    889.793061
                    889.793060
                    889.793060
                    889.793059
                    889.793059
                    889.793058
                    889.793058
                    889.793057
                    889.793057
                    889.793057
                    889.793057
                    889.793057
                    889.793057
                    889.793057
                    889.793057
                    889.793057
                    889.793057
                    889.793057
                    889.793057
                    889.793058
                    889.793058
                    889.793058
                    889.793058
                    889.793057
                    889.793057
                    889.793056
                    889.793055
                    889.793054
                    889.793053
                    889.793052
                    889.793050
                    889.793047
                    889.793045
                    889.793042
                    889.793040
                    889.793036
                    889.793033
                    889.793030
                    889.793027
                    889.793023
                    889.793020
                    889.793017
                    889.793014
                    889.793011
                    889.793009
                    889.793007
                    889.793005
                    889.793003
                    889.793002
                    889.793002
                    889.793001
                    889.793001
                    889.793001
                    889.793001
                    889.793002
                    889.793002
                    889.793003
                    889.793004
                    889.793005
                    889.793006
                    889.793007
                    889.793009
                    889.793010
                    889.793011
                    889.793013
                    889.793014
                    889.793016
                    889.793017
                    889.793019
                    889.793020
                    889.793021
                    889.793023
                    889.793024
                    889.793026
                    889.793028
                    889.793029
        </DataArray>
        <DataArray type="Float32" Name="rho_g" format="ascii">
                      0.484916
                      0.484918
                      0.484920
                      0.484922
                      0.484925
                      0.484927
                      0.484929
                      0.484931
                      0.484933
                      0.484935
                      0.484937
                      0.484940
                      0.484942
                      0.484944
                      0.484946
                      0.484948
                      0.484950
                      0.484952
                      0.484954
                      0.484956
                      0.484959
                      0.484961
                      0.484963
                      0.484965
                      0.484967
                      0.484969
                      0.484971
                      0.484973
                      0.484974
                      0.484976
                      0.484977
                      0.484979
                      0.484980
                      0.484980
                      0.484981
                      0.484981
                      0.484980
                      0.484980
                      0.484978
                      0.484976
                      0.484974
                      0.484970
                      0.484966
                      0.484961
                      0.484954
                      0.484947
                      0.484938
                      0.484928
                      0.484916
                      0.484903
                      0.484888
                      0.484872
                      0.484854
                      0.484834
                      0.484812
                      0.484788
                      0.484763
                      0.484737
                      0.484709
                      0.484681
                      0.484652
                      0.484623
                      0.484594
                      0.484566
                      0.484539
                      0.484514
                      0.484490
                      0.484469
                      0.484450
                      0.484433
                      0.484419
                      0.484407
                      0.484398
                      0.484392
                      0.484387
                      0.484385
                      0.484385
                      0.484386
                      0.484389
                      0.484393
                      0.484398
                      0.484404
                      0.484411
                      0.484419
                      0.484427
                      0.484436
                      0.484445
                      0.484455
                      0.484465
                      0.484474
                      0.484485
                      0.484495
                      0.484505
                      0.484516
                      0.484526
                      0.484536
                      0.484547
                      0.484558
                      0.484568
                      0.484579
        </DataArray>
        <DataArray type="Float32" Name="T_l" format="ascii">
                    450.000002
                    450.000004
                    450.000005
                    450.000007
                    450.000009
                    450.000010
                    450.000012
                    450.000013
                    450.000015
                    450.000016
                    450.000018
                    450.000019
                    450.000020
                    450.000022
                    450.000023
                    450.000024
                    450.000025
                    450.000027
                    450.000028
                    450.000029
                    450.000030
                    450.000031
                    450.000032
                    450.000033
                    450.000034
                    450.000035
                    450.000036
                    450.000037
                    450.000038
                    450.000038
                    450.000039
                    450.000039
                    450.000040
                    450.000040
                    450.000040
                    450.000041
                    450.000041
                    450.000040
                    450.000040
                    450.000040
                    450.000039
                    450.000038
                    450.000037
                    450.000036
                    450.000035
                    450.000034
                    450.000033
                    450.000031
                    450.000030
                    450.000028
                    450.000026
                    450.000025
                    450.000023
                    450.000021
                    450.000019
                    450.000017
                    450.000015
                    450.000014
                    450.000012
                    450.000010
                    450.000008
                    450.000006
                    450.000005
                    450.000003
                    450.000002
                    450.000000
                    449.999999
                    449.999998
                    449.999997
                    449.999996
                    449.999995
                    449.999994
                    449.999994
                    449.999994
                    449.999993
                    449.999993
                    449.999993
                    449.999993
                    449.999993
                    449.999993
                    449.999993
                    449.999993
                    449.999994
                    449.999994
                    449.999994
                    449.999995
                    449.999995
                    449.999995
                    449.999996
                    449.999996
                    449.999996
                    449.999997
                    449.999997
                    449.999997
                    449.999998
                    449.999998
                    449.999999
                    449.999999
                    449.999999
                    450.000000
        </DataArray>
        <DataArray type="Float32" Name="T_g" format="ascii">
                    450.096816
                    450.097433
                    450.098049
                    450.098665
                    450.099281
                    450.099894
                    450.100510
                    450.101124
                    450.101738
                    450.102352
                    450.102966
                    450.103580
                    450.104194
                    450.104808
                    450.105422
                    450.106036
                    450.106650
                    450.107263
                    450.107875
                    450.108485
                    450.109093
                    450.109698
                    450.110297
                    450.110888
                    450.111469
                    450.112035
                    450.112585
                    450.113111
                    450.113608
                    450.114067
                    450.114480
                    450.114839
                    450.115132
                    450.115347
                    450.115471
                    450.115490
                    450.115387
                    450.115144
                    450.114744
                    450.114164
                    450.113383
                    450.112377
                    450.111119
                    450.109583
                    450.107740
                    450.105561
                    450.103014
                    450.100070
                    450.096698
                    450.092871
                    450.088566
                    450.083761
                    450.078445
                    450.072613
                    450.066273
                    450.059444
                    450.052161
                    450.044475
                    450.036453
                    450.028179
                    450.019753
                    450.011283
                    450.002889
                    449.994739
                    449.986928
                    449.979546
                    449.972692
                    449.966450
                    449.960885
                    449.956040
                    449.951937
                    449.948580
                    449.945951
                    449.944022
                    449.942750
                    449.942085
                    449.941972
                    449.942353
                    449.943171
                    449.944370
                    449.945899
                    449.947710
                    449.949758
                    449.952007
                    449.954422
                    449.956974
                    449.959638
                    449.962393
                    449.965222
                    449.968111
                    449.971046
                    449.974019
                    449.977022
                    449.980048
                    449.983092
                    449.986149
                    449.989218
                    449.992295
                    449.995378
                    449.998452
        </DataArray>
      </CellData>
      <PointData>
        <DataArray type="Int32" Name="node_id" format="ascii">
          0
          1
          2
          3
          4
          5
          6
          7
          8
          9
          10
          11
          12
          13
          14
          15
          16
          17
          18
          19
          20
          21
          22
          23
          24
          25
          26
          27
          28
          29
          30
          31
          32
          33
          34
          35
          36
          37
          38
          39
          40
          41
          42
          43
          44
          45
          46
          47
          48
          49
          50
          51
          52
          53
          54
          55
          56
          57
          58
          59
          60
          61
          62
          63
          64
          65
          66
          67
          68
          69
          70
          71
          72
          73
          74
          75
          76
          77
          78
          79
          80
          81
          82
          83
          84
          85
          86
          87
          88
          89
          90
          91
          92
          93
          94
          95
          96
          97
          98
          99
          100
        </DataArray>
        <DataArray type="Float32" Name="v_l" format="ascii">
                     10.000000
                     10.116303
                     10.231299
                     10.345031
                     10.457539
                     10.568862
                     10.679037
                     10.788098
                     10.896078
                     11.003008
                     11.108919
                     11.213839
                     11.317796
                     11.420814
                     11.522919
                     11.624135
                     11.724483
                     11.823984
                     11.922658
                     12.020522
                     12.117590
                     12.213877
                     12.309390
                     12.404135
                     12.498113
                     12.591316
                     12.683734
                     12.775344
                     12.866118
                     12.956014
                     13.044983
                     13.132963
                     13.219880
                     13.305648
                     13.390171
                     13.473340
                     13.555038
                     13.635137
                     13.713505
                     13.790004
                     13.864490
                     13.936823
                     14.006863
                     14.074474
                     14.139527
                     14.201904
                     14.261497
                     14.318214
                     14.371978
                     14.422729
                     14.470426
                     14.515049
                     14.556596
                     14.595087
                     14.630561
                     14.663077
                     14.692714
                     14.719565
                     14.743742
                     14.765371
                     14.784588
                     14.801542
                     14.816389
                     14.829290
                     14.840411
                     14.849917
                     14.857973
                     14.864737
                     14.870364
                     14.875000
                     14.878781
                     14.881832
                     14.884267
                     14.886188
                     14.887685
                     14.888836