<VTKFile type="UnstructuredGrid" version="0.1" byte_order="LittleEndian">
  <UnstructuredGrid>
    <Piece NumberOfPoints="101" NumberOfCells="100">
      <Points>
        <DataArray type = "Float32" NumberOfComponents="3" format="ascii">
          0.000000 0 0
          0.120000 0 0
          0.240000 0 0
          0.360000 0 0
          0.480000 0 0
          0.600000 0 0
          0.720000 0 0
          0.840000 0 0
          0.960000 0 0
          1.080000 0 0
          1.200000 0 0
          1.320000 0 0
          1.440000 0 0
          1.560000 0 0
          1.680000 0 0
          1.800000 0 0
          1.920000 0 0
          2.040000 0 0
          2.160000 0 0
          2.280000 0 0
          2.400000 0 0
          2.520000 0 0
          2.640000 0 0
          2.760000 0 0
          2.880000 0 0
          3.000000 0 0
          3.120000 0 0
          3.240000 0 0
          3.360000 0 0
          3.480000 0 0
          3.600000 0 0
          3.720000 0 0
          3.840000 0 0
          3.960000 0 0
          4.080000 0 0
          4.200000 0 0
          4.320000 0 0
          4.440000 0 0
          4.560000 0 0
          4.680000 0 0
          4.800000 0 0
          4.920000 0 0
          5.040000 0 0
          5.160000 0 0
          5.280000 0 0
          5.400000 0 0
          5.520000 0 0
          5.640000 0 0
          5.760000 0 0
          5.880000 0 0
          6.000000 0 0
          6.120000 0 0
          6.240000 0 0
          6.360000 0 0
          6.480000 0 0
          6.600000 0 0
          6.720000 0 0
          6.840000 0 0
          6.960000 0 0
          7.080000 0 0
          7.200000 0 0
          7.320000 0 0
          7.440000 0 0
          7.560000 0 0
          7.680000 0 0
          7.800000 0 0
          7.920000 0 0
          8.040000 0 0
          8.160000 0 0
          8.280000 0 0
          8.400000 0 0
          8.520000 0 0
          8.640000 0 0
          8.760000 0 0
          8.880000 0 0
          9.000000 0 0
          9.120000 0 0
          9.240000 0 0
          9.360000 0 0
          9.480000 0 0
          9.600000 0 0
          9.720000 0 0
          9.840000 0 0
          9.960000 0 0
          10.080000 0 0
          10.200000 0 0
          10.320000 0 0
          10.440000 0 0
          10.560000 0 0
          10.680000 0 0
          10.800000 0 0
          10.920000 0 0
          11.040000 0 0
          11.160000 0 0
          11.280000 0 0
          11.400000 0 0
          11.520000 0 0
          11.640000 0 0
          11.760000 0 0
          11.880000 0 0
          12.000000 0 0
        </DataArray>
      </Points>
      <Cells>
        <DataArray type = "Int32" Name="connectivity" format="ascii">
          0 1
          1 2
          2 3
          3 4
          4 5
          5 6
          6 7
          7 8
          8 9
          9 10
          10 11
          11 12
          12 13
          13 14
          14 15
          15 16
          16 17
          17 18
          18 19
          19 20
          20 21
          21 22
          22 23
          23 24
          24 25
          25 26
          26 27
          27 28
          28 29
          29 30
          30 31
          31 32
          32 33
          33 34
          34 35
          35 36
          36 37
          37 38
          38 39
          39 40
          40 41
          41 42
          42 43
          43 44
          44 45
          45 46
          46 47
          47 48
          48 49
          49 50
          50 51
          51 52
          52 53
          53 54
          54 55
          55 56
          56 57
          57 58
          58 59
          59 60
          60 61
          61 62
          62 63
          63 64
          64 65
          65 66
          66 67
          67 68
          68 69
          69 70
          70 71
          71 72
          72 73
          73 74
          74 75
          75 76
          76 77
          77 78
          78 79
          79 80
          80 81
          81 82
          82 83
          83 84
          84 85
          85 86
          86 87
          87 88
          88 89
          89 90
          90 91
          91 92
          92 93
          93 94
          94 95
          95 96
          96 97
          97 98
          98 99
          99 100
        </DataArray>
        <DataArray type = "Int32" Name="offsets" format="ascii">
          2
          4
          6
          8
          10
          12
          14
          16
          18
          20
          22
          24
          26
          28
          30
          32
          34
          36
          38
          40
          42
          44
          46
          48
          50
          52
          54
          56
          58
          60
          62
          64
          66
          68
          70
          72
          74
          76
          78
          80
          82
          84
          86
          88
          90
          92
          94
          96
          98
          100
          102
          104
          106
          108
          110
          112
          114
          116
          118
          120
          122
          124
          126
          128
          130
          132
          134
          136
          138
          140
          142
          144
          146
          148
          150
          152
          154
          156
          158
          160
          162
          164
          166
          168
          170
          172
          174
          176
          178
          180
          182
          184
          186
          188
          190
          192
          194
          196
          198
          200
        </DataArray>
        <DataArray type = "UInt8" Name="types" format="ascii">
          3
          3
          3
          3
          3
          3
          3
          3
          3
          3
          3
          3
          3
          3
          3
          3
          3
          3
          3
          3
          3
          3
          3
          3
          3
          3
          3
          3
          3
          3
          3
          3
          3
          3
          3
          3
          3
          3
          3
          3
          3
          3
          3
          3
          3
          3
          3
          3
          3
          3
          3
          3
          3
          3
          3
          3
          3
          3
          3
          3
          3
          3
          3
          3
          3
          3
          3
          3
          3
          3
          3
          3
          3
          3
          3
          3
          3
          3
          3
          3
          3
          3
          3
          3
          3
          3
          3
          3
          3
          3
          3
          3
          3
          3
          3
          3
          3
          3
          3
          3
        </DataArray>
      </Cells>
      <CellData>
        <DataArray type="Float32" Name="alpha" format="ascii">
                      0.205889
                      0.214011
                      0.222579
                      0.230760
                      0.238547
                      0.247095
                      0.257790
                      0.269474
                      0.277390
                      0.278499
                      0.275586
                      0.267308
                      0.253772
                      0.238026
                      0.223954
                      0.213729
                      0.207323
                      0.203702
                      0.201786
                      0.200832
                      0.200376
                      0.200164
                      0.200071
                      0.200030
                      0.200013
                      0.200006
                      0.200003
                      0.200002
                      0.200001
                      0.200001
                      0.200001
                      0.200001
                      0.200001
                      0.200001
                      0.200001
                      0.200001
                      0.200001
                      0.200001
                      0.200001
                      0.200001
                      0.200001
                      0.200001
                      0.200001
                      0.200001
                      0.200001
                      0.200001
                      0.200001
                      0.200001
                      0.200001
                      0.200001
                      0.200001
                      0.200001
                      0.200001
                      0.200001
                      0.200001
                      0.200001
                      0.200001
                      0.200001
                      0.200001
                      0.200001
                      0.200001
                      0.200001
                      0.200001
                      0.200001
                      0.200001
                      0.200001
                      0.200001
                      0.200001
                      0.200001
                      0.200001
                      0.200001
                      0.200001
                      0.200001
                      0.200001
                      0.200001
                      0.200001
                      0.200001
                      0.200001
                      0.200001
                      0.200001
                      0.200000
                      0.200000
                      0.200000
                      0.200000
                      0.200000
                      0.200000
                      0.200000
                      0.200000
                      0.200000
                      0.200000
                      0.200000
                      0.200000
                      0.200000
                      0.200000
                      0.200000
                      0.200000
                      0.200000
                      0.200000
                      0.200000
                      0.200000
        </DataArray>
        <DataArray type="Float32" Name="p" format="ascii">
                  99644.648119
                  99645.251236
                  99645.886821
                  99646.514347
                  99647.137019
                  99647.921847
                  99649.198506
                  99650.860698
                  99651.279578
                  99651.062684
                  99650.171827
                  99647.822699
                  99643.551599
                  99637.932760
                  99632.682947
                  99629.377931
                  99628.425620
                  99629.365840
                  99631.546456
                  99634.448964
                  99637.741588
                  99641.242393
                  99644.857993
                  99648.543155
                  99652.274566
                  99656.043531
                  99659.846229
                  99663.680505
                  99667.545358
                  99671.440243
                  99675.364788
                  99679.318700
                  99683.301698
                  99687.313507
                  99691.353850
                  99695.422441
                  99699.518992
                  99703.643205
                  99707.794779
                  99711.973403
                  99716.178763
                  99720.410537
                  99724.668398
                  99728.952012
                  99733.261041
                  99737.595139
                  99741.953955
                  99746.337134
                  99750.744313
                  99755.175126
                  99759.629200
                  99764.106158
                  99768.605616
                  99773.127187
                  99777.670478
                  99782.235091
                  99786.820625
                  99791.426672
                  99796.052821
                  99800.698657
                  99805.363759
                  99810.047703
                  99814.750061
                  99819.470400
                  99824.208283
                  99828.963272
                  99833.734923
                  99838.522787
                  99843.326415
                  99848.145352
                  99852.979141
                  99857.827321
                  99862.689430
                  99867.565000
                  99872.453563
                  99877.354647
                  99882.267776
                  99887.192475
                  99892.128263
                  99897.074659
                  99902.031180
                  99906.997339
                  99911.972648
                  99916.956618
                  99921.948757
                  99926.948573
                  99931.955570
                  99936.969253
                  99941.989123
                  99947.014684
                  99952.045434
                  99957.080873
                  99962.120499
                  99967.163811
                  99972.210305
                  99977.259477
                  99982.310823
                  99987.363809
                  99992.418179
                  99997.472850
        </DataArray>
        <DataArray type="Float32" Name="rho_l" format="ascii">
                    889.792796
                    889.792808
                    889.792820
                    889.792824
                    889.792821
                    889.792813
                    889.792803
                    889.792796
                    889.792796
                    889.792799
                    889.792806
                    889.792816
                    889.792824
                    889.792829
                    889.792831
                    889.792832
                    889.792833
                    889.792834
                    889.792836
                    889.792838
                    889.792839
                    889.792841
                    889.792843
                    889.792845
                    889.792847
                    889.792849
                    889.792851
                    889.792853
                    889.792855
                    889.792857
                    889.792859
                    889.792861
                    889.792863
                    889.792865
                    889.792868
                    889.792870
                    889.792872
                    889.792874
                    889.792876
                    889.792878
                    889.792881
                    889.792883
                    889.792885
                    889.792887
                    889.792890
                    889.792892
                    889.792894
                    889.792897
                    889.792899
                    889.792901
                    889.792903
                    889.792906
                    889.792908
                    889.792911
                    889.792913
                    889.792915
                    889.792918
                    889.792920
                    889.792923
                    889.792925
                    889.792928
                    889.792930
                    889.792932
                    889.792935
                    889.792937
                    889.792940
                    889.792942
                    889.792945
                    889.792947
                    889.792950
                    889.792953
                    889.792955
                    889.792958
                    889.792960
                    889.792963
                    889.792965
                    889.792968
                    889.792971
                    889.792973
                    889.792976
                    889.792978
                    889.792981
                    889.792984
                    889.792986
                    889.792989
                    889.792991
                    889.792994
                    889.792997
                    889.792999
                    889.793002
                    889.793005
                    889.793007
                    889.793010
                    889.793013
                    889.793015
                    889.793018
                    889.793020
                    889.793023
                    889.793026
                    889.793028
        </DataArray>
        <DataArray type="Float32" Name="rho_g" format="ascii">
                      0.483273
                      0.483275
                      0.483278
                      0.483280
                      0.483282
                      0.483285
                      0.483290
                      0.483296
                      0.483298
                      0.483297
                      0.483294
                      0.483285
                      0.483269
                      0.483248
                      0.483229
                      0.483217
                      0.483213
                      0.483217
                      0.483225
                      0.483236
                      0.483248
                      0.483261
                      0.483274
                      0.483288
                      0.483301
                      0.483315
                      0.483329
                      0.483343
                      0.483358
                      0.483372
                      0.483387
                      0.483401
                      0.483416
                      0.483431
                      0.483446
                      0.483461
                      0.483476
                      0.483491
                      0.483506
                      0.483522
                      0.483537
                      0.483553
                      0.483569
                      0.483584
                      0.483600
                      0.483616
                      0.483632
                      0.483649
                      0.483665
                      0.483681
                      0.483698
                      0.483714
                      0.483731
                      0.483747
                      0.483764
                      0.483781
                      0.483798
                      0.483815
                      0.483832
                      0.483849
                      0.483866
                      0.483884
                      0.483901
                      0.483918
                      0.483936
                      0.483953
                      0.483971
                      0.483989
                      0.484006
                      0.484024
                      0.484042
                      0.484060
                      0.484078
                      0.484096
                      0.484114
                      0.484132
                      0.484150
                      0.484168
                      0.484186
                      0.484205
                      0.484223
                      0.484241
                      0.484260
                      0.484278
                      0.484296
                      0.484315
                      0.484333
                      0.484352
                      0.484370
                      0.484389
                      0.484407
                      0.484426
                      0.484444
                      0.484463
                      0.484482
                      0.484500
                      0.484519
                      0.484538
                      0.484556
                      0.484575
        </DataArray>
        <DataArray type="Float32" Name="T_l" format="ascii">
                    449.999995
                    449.999985
                    449.999974
                    449.999971
                    449.999974
                    449.999982
                    449.999992
                    449.999999
                    450.000000
                    449.999997
                    449.999989
                    449.999979
                    449.999968
                    449.999960
                    449.999955
                    449.999952
                    449.999951
                    449.999950
                    449.999950
                    449.999950
                    449.999951
                    449.999951
                    449.999951
                    449.999952
                    449.999953
                    449.999953
                    449.999954
                    449.999954
                    449.999955
                    449.999955
                    449.999956
                    449.999956
                    449.999957
                    449.999957
                    449.999958
                    449.999958
                    449.999959
                    449.999960
                    449.999960
                    449.999961
                    449.999961
                    449.999962
                    449.999962
                    449.999963
                    449.999964
                    449.999964
                    449.999965
                    449.999965
                    449.999966
                    449.999967
                    449.999967
                    449.999968
                    449.999968
                    449.999969
                    449.999970
                    449.999970
                    449.999971
                    449.999971
                    449.999972
                    449.999973
                    449.999973
                    449.999974
                    449.999975
                    449.999975
                    449.999976
                    449.999977
                    449.999977
                    449.999978
                    449.999979
                    449.999979
                    449.999980
                    449.999981
                    449.999981
                    449.999982
                    449.999983
                    449.999983
                    449.999984
                    449.999985
                    449.999985
                    449.999986
                    449.999987
                    449.999987
                    449.999988
                    449.999989
                    449.999989
                    449.999990
                    449.999991
                    449.999991
                    449.999992
                    449.999993
                    449.999993
                    449.999994
                    449.999995
                    449.999996
                    449.999996
                    449.999997
                    449.999998
                    449.999998
                    449.999999
                    450.000000
        </DataArray>
        <DataArray type="Float32" Name="T_g" format="ascii">
                    449.618354
                    449.619003
                    449.619689
                    449.620367
                    449.621039
                    449.621885
                    449.623258
                    449.625044
                    449.625492
                    449.625257
                    449.624297
                    449.621769
                    449.617173
                    449.611127
                    449.605477
                    449.601920
                    449.600895
                    449.601906
                    449.604252
                    449.607375
                    449.610917
                    449.614683
                    449.618573
                    449.622537
                    449.626551
                    449.630605
                    449.634695
                    449.638819
                    449.642976
                    449.647165
                    449.651385
                    449.655637
                    449.659921
                    449.664235
                    449.668579
                    449.672954
                    449.677358
                    449.681793
                    449.686256
                    449.690749
                    449.695269
                    449.699819
                    449.704396
                    449.709000
                    449.713632
                    449.718290
                    449.722975
                    449.727686
                    449.732422
                    449.737184
                    449.741970
                    449.746781
                    449.751616
                    449.756474
                    449.761356
                    449.766260
                    449.771186
                    449.776135
                    449.781104
                    449.786095
                    449.791106
                    449.796137
                    449.801188
                    449.806258
                    449.811346
                    449.816453
                    449.821577
                    449.826718
                    449.831876
                    449.837051
                    449.842241
                    449.847446
                    449.852666
                    449.857901
                    449.863149
                    449.868410
                    449.873684
                    449.878970
                    449.884268
                    449.889577
                    449.894897
                    449.900227
                    449.905566
                    449.910914
                    449.916271
                    449.921637
                    449.927009
                    449.932389
                    449.937775
                    449.943166
                    449.948564
                    449.953966
                    449.959372
                    449.964782
                    449.970195
                    449.975611
                    449.981029
                    449.986448
                    449.991869
                    449.997290
        </DataArray>
      </CellData>
      <PointData>
        <DataArray type="Int32" Name="node_id" format="ascii">
          0
          1
          2
          3
          4
          5
          6
          7
          8
          9
          10
          11
          12
          13
          14
          15
          16
          17
          18
          19
          20
          21
          22
          23
          24
          25
          26
          27
          28
          29
          30
          31
          32
          33
          34
          35
          36
          37
          38
          39
          40
          41
          42
          43
          44
          45
          46
          47
          48
          49
          50
          51
          52
          53
          54
          55
          56
          57
          58
          59
          60
          61
          62
          63
          64
          65
          66
          67
          68
          69
          70
          71
          72
          73
          74
          75
          76
          77
          78
          79
          80
          81
          82
          83
          84
          85
          86
          87
          88
          89
          90
          91
          92
          93
          94
          95
          96
          97
          98
          99
          100
        </DataArray>
        <DataArray type="Float32" Name="v_l" format="ascii">
                     10.000000
                     10.116552
                     10.232140
                     10.346548
                     10.459386
                     10.570287
                     10.680146
                     10.791614
                     10.907166
                     11.025797
                     11.141367
                     11.244177
                     11.325741
                     11.383053
                     11.418930
                     11.439227
                     11.449778
                     11.454893
                     11.457244
                     11.458264
                     11.458692
                     11.458866
                     11.458934
                     11.458959
                     11.458970
                     11.458974
                     11.458976
                     11.458977
                     11.458978
                     11.458979
                     11.458979
                     11.458980
                     11.458981
                     11.458982
                     11.458983
                     11.458984
                     11.458985
                     11.458986
                     11.458987
                     11.458988
                     11.458989
                     11.458990
                     11.458990
                     11.458991
                     11.458992
                     11.458993
                     11.458994
                     11.458995
                     11.458995
                     11.458996
                     11.458997
                     11.458998
                     11.458999
                     11.458999
                     11.459000
                     11.459001
                     11.459002
                     11.459002
                     11.459003
                     11.459004
                     11.459004
                     11.459005
                     11.459006
                     11.459006
                     11.459007
                     11.459008
                     11.459008
                     11.459009
                     11.459010
                     11.459010
                     11.459011
                     11.459011
                     11.459012
                     11.459012
                     11.459013
                     11.459013