<VTKFile type="UnstructuredGrid" version="0.1" byte_order="LittleEndian">
  <UnstructuredGrid>
    <Piece NumberOfPoints="101" NumberOfCells="100">
      <Points>
        <DataArray type = "Float32" NumberOfComponents="3" format="ascii">
          0.000000 0 0
          0.120000 0 0
          0.240000 0 0
          0.360000 0 0
          0.480000 0 0
          0.600000 0 0
          0.720000 0 0
          0.840000 0 0
          0.960000 0 0
          1.080000 0 0
          1.200000 0 0
          1.320000 0 0
          1.440000 0 0
          1.560000 0 0
          1.680000 0 0
          1.800000 0 0
          1.920000 0 0
          2.040000 0 0
          2.160000 0 0
          2.280000 0 0
          2.400000 0 0
          2.520000 0 0
          2.640000 0 0
          2.760000 0 0
          2.880000 0 0
          3.000000 0 0
          3.120000 0 0
          3.240000 0 0
          3.360000 0 0
          3.480000 0 0
          3.600000 0 0
          3.720000 0 0
          3.840000 0 0
          3.960000 0 0
          4.080000 0 0
          4.200000 0 0
          4.320000 0 0
          4.440000 0 0
          4.560000 0 0
          4.680000 0 0
          4.800000 0 0
          4.920000 0 0
          5.040000 0 0
          5.160000 0 0
          5.280000 0 0
          5.400000 0 0
          5.520000 0 0
          5.640000 0 0
          5.760000 0 0
          5.880000 0 0
          6.000000 0 0
          6.120000 0 0
          6.240000 0 0
          6.360000 0 0
          6.480000 0 0
          6.600000 0 0
          6.720000 0 0
          6.840000 0 0
          6.960000 0 0
          7.080000 0 0
          7.200000 0 0
          7.320000 0 0
          7.440000 0 0
          7.560000 0 0
          7.680000 0 0
          7.800000 0 0
          7.920000 0 0
          8.040000 0 0
          8.160000 0 0
          8.280000 0 0
          8.400000 0 0
          8.520000 0 0
          8.640000 0 0
          8.760000 0 0
          8.880000 0 0
          9.000000 0 0
          9.120000 0 0
          9.240000 0 0
          9.360000 0 0
          9.480000 0 0
          9.600000 0 0
          9.720000 0 0
          9.840000 0 0
          9.960000 0 0
          10.080000 0 0
          10.200000 0 0
          10.320000 0 0
          10.440000 0 0
          10.560000 0 0
          10.680000 0 0
          10.800000 0 0
          10.920000 0 0
          11.040000 0 0
          11.160000 0 0
          11.280000 0 0
          11.400000 0 0
          11.520000 0 0
          11.640000 0 0
          11.760000 0 0
          11.880000 0 0
          12.000000 0 0
        </DataArray>
      </Points>
      <Cells>
        <DataArray type = "Int32" Name="connectivity" format="ascii">
          0 1
          1 2
          2 3
          3 4
          4 5
          5 6
          6 7
          7 8
          8 9
          9 10
          10 11
          11 12
          12 13
          13 14
          14 15
          15 16
          16 17
          17 18
          18 19
          19 20
          20 21
          21 22
          22 23
          23 24
          24 25
          25 26
          26 27
          27 28
          28 29
          29 30
          30 31
          31 32
          32 33
          33 34
          34 35
          35 36
          36 37
          37 38
          38 39
          39 40
          40 41
          41 42
          42 43
          43 44
          44 45
          45 46
          46 47
          47 48
          48 49
          49 50
          50 51
          51 52
          52 53
          53 54
          54 55
          55 56
          56 57
          57 58
          58 59
          59 60
          60 61
          61 62
          62 63
          63 64
          64 65
          65 66
          66 67
          67 68
          68 69
          69 70
          70 71
          71 72
          72 73
          73 74
          74 75
          75 76
          76 77
          77 78
          78 79
          79 80
          80 81
          81 82
          82 83
          83 84
          84 85
          85 86
          86 87
          87 88
          88 89
          89 90
          90 91
          91 92
          92 93
          93 94
          94 95
          95 96
          96 97
          97 98
          98 99
          99 100
        </DataArray>
        <DataArray type = "Int32" Name="offsets" format="ascii">
          2
          4
          6
          8
          10
          12
          14
          16
          18
          20
          22
          24
          26
          28
          30
          32
          34
          36
          38
          40
          42
          44
          46
          48
          50
          52
          54
          56
          58
          60
          62
          64
          66
          68
          70
          72
          74
          76
          78
          80
          82
          84
          86
          88
          90
          92
          94
          96
          98
          100
          102
          104
          106
          108
          110
          112
          114
          116
          118
          120
          122
          124
          126
          128
          130
          132
          134
          136
          138
          140
          142
          144
          146
          148
          150
          152
          154
          156
          158
          160
          162
          164
          166
          168
          170
          172
          174
          176
          178
          180
          182
          184
          186
          188
          190
          192
          194
          196
          198
          200
        </DataArray>
        <DataArray type = "UInt8" Name="types" format="ascii">
          3
          3
          3
          3
          3
          3
          3
          3
          3
          3
          3
          3
          3
          3
          3
          3
          3
          3
          3
          3
          3
          3
          3
          3
          3
          3
          3
          3
          3
          3
          3
          3
          3
          3
          3
          3
          3
          3
          3
          3
          3
          3
          3
          3
          3
          3
          3
          3
          3
          3
          3
          3
          3
          3
          3
          3
          3
          3
          3
          3
          3
          3
          3
          3
          3
          3
          3
          3
          3
          3
          3
          3
          3
          3
          3
          3
          3
          3
          3
          3
          3
          3
          3
          3
          3
          3
          3
          3
          3
          3
          3
          3
          3
          3
          3
          3
          3
          3
          3
          3
        </DataArray>
      </Cells>
      <CellData>
        <DataArray type="Float32" Name="alpha" format="ascii">
                      0.209197
                      0.218081
                      0.226660
                      0.234919
                      0.242819
                      0.250278
                      0.257176
                      0.263357
                      0.268641
                      0.272851
                      0.275831
                      0.277470
                      0.277717
                      0.276588
                      0.274168
                      0.270602
                      0.266084
                      0.260841
                      0.255113
                      0.249137
                      0.243133
                      0.237292
                      0.231767
                      0.226672
                      0.222082
                      0.218035
                      0.214536
                      0.211568
                      0.209093
                      0.207063
                      0.205423
                      0.204119
                      0.203095
                      0.202302
                      0.201696
                      0.201238
                      0.200895
                      0.200642
                      0.200456
                      0.200322
                      0.200225
                      0.200157
                      0.200108
                      0.200074
                      0.200051
                      0.200035
                      0.200023
                      0.200016
                      0.200011
                      0.200007
                      0.200005
                      0.200004
                      0.200003
                      0.200002
                      0.200001
                      0.200001
                      0.200001
                      0.200001
                      0.200001
                      0.200001
                      0.200001
                      0.200001
                      0.200001
                      0.200001
                      0.200001
                      0.200001
                      0.200001
                      0.200001
                      0.200001
                      0.200001
                      0.200001
                      0.200001
                      0.200001
                      0.200001
                      0.200001
                      0.200001
                      0.200001
                      0.200000
                      0.200000
                      0.200000
                      0.200000
                      0.200000
                      0.200000
                      0.200000
                      0.200000
                      0.200000
                      0.200000
                      0.200000
                      0.200000
                      0.200000
                      0.200000
                      0.200000
                      0.200000
                      0.200000
                      0.200000
                      0.200000
                      0.200000
                      0.200000
                      0.200000
                      0.200000
        </DataArray>
        <DataArray type="Float32" Name="p" format="ascii">
                  99828.413603
                  99828.982421
                  99829.549844
                  99830.113986
                  99830.670096
                  99831.208833
                  99831.714833
                  99832.166048
                  99832.534043
                  99832.785135
                  99832.882127
                  99832.786435
                  99832.460538
                  99831.870822
                  99830.990907
                  99829.805458
                  99828.314284
                  99826.536234
                  99824.512116
                  99822.305725
                  99820.002101
                  99817.702577
                  99815.516862
                  99813.553199
                  99811.908267
                  99810.658663
                  99809.855432
                  99809.522319
                  99809.657557
                  99810.238275
                  99811.226320
                  99812.574306
                  99814.231026
                  99816.145712
                  99818.271007
                  99820.564729
                  99822.990670
                  99825.518668
                  99828.124232
                  99830.787907
                  99833.494524
                  99836.232460
                  99838.992938
                  99841.769425
                  99844.557115
                  99847.352517
                  99850.153123
                  99852.957149
                  99855.763338
                  99858.570815
                  99861.378978
                  99864.187415
                  99866.995848
                  99869.804092
                  99872.612028
                  99875.419578
                  99878.226696
                  99881.033354
                  99883.839538
                  99886.645244
                  99889.450473
                  99892.255229
                  99895.059520
                  99897.863354
                  99900.666743
                  99903.469698
                  99906.272229
                  99909.074349
                  99911.876070
                  99914.677404
                  99917.478364
                  99920.278963
                  99923.079214
                  99925.879128
                  99928.678719
                  99931.478001
                  99934.276986
                  99937.075688
                  99939.874119
                  99942.672294
                  99945.470224
                  99948.267925
                  99951.065409
                  99953.862690
                  99956.659781
                  99959.456696
                  99962.253449
                  99965.050053
                  99967.846522
                  99970.642870
                  99973.439111
                  99976.235258
                  99979.031325
                  99981.827326
                  99984.623275
                  99987.419185
                  99990.215072
                  99993.010948
                  99995.806827
                  99998.602358
        </DataArray>
        <DataArray type="Float32" Name="rho_l" format="ascii">
                    889.792913
                    889.792912
                    889.792911
                    889.792910
                    889.792910
                    889.792909
                    889.792909
                    889.792909
                    889.792909
                    889.792909
                    889.792910
                    889.792910
                    889.792912
                    889.792913
                    889.792915
                    889.792917
                    889.792918
                    889.792920
                    889.792922
                    889.792923
                    889.792924
                    889.792925
                    889.792925
                    889.792926
                    889.792926
                    889.792926
                    889.792927
                    889.792927
                    889.792928
                    889.792929
                    889.792930
                    889.792931
                    889.792932
                    889.792933
                    889.792934
                    889.792935
                    889.792937
                    889.792938
                    889.792939
                    889.792941
                    889.792942
                    889.792944
                    889.792945
                    889.792947
                    889.792948
                    889.792950
                    889.792951
                    889.792953
                    889.792954
                    889.792955
                    889.792957
                    889.792958
                    889.792960
                    889.792961
                    889.792963
                    889.792964
                    889.792966
                    889.792967
                    889.792969
                    889.792970
                    889.792972
                    889.792973
                    889.792975
                    889.792976
                    889.792978
                    889.792979
                    889.792981
                    889.792982
                    889.792983
                    889.792985
                    889.792986
                    889.792988
                    889.792989
                    889.792991
                    889.792992
                    889.792994
                    889.792995
                    889.792997
                    889.792998
                    889.793000
                    889.793001
                    889.793003
                    889.793004
                    889.793006
                    889.793007
                    889.793008
                    889.793010
                    889.793011
                    889.793013
                    889.793014
                    889.793016
                    889.793017
                    889.793019
                    889.793020
                    889.793022
                    889.793023
                    889.793025
                    889.793026
                    889.793028
                    889.793029
        </DataArray>
        <DataArray type="Float32" Name="rho_g" format="ascii">
                      0.483951
                      0.483953
                      0.483955
                      0.483957
                      0.483960
                      0.483962
                      0.483963
                      0.483965
                      0.483966
                      0.483967
                      0.483968
                      0.483967
                      0.483966
                      0.483964
                      0.483961
                      0.483956
                      0.483951
                      0.483944
                      0.483937
                      0.483929
                      0.483920
                      0.483912
                      0.483904
                      0.483896
                      0.483890
                      0.483886
                      0.483883
                      0.483882
                      0.483882
                      0.483884
                      0.483888
                      0.483893
                      0.483899
                      0.483906
                      0.483914
                      0.483922
                      0.483931
                      0.483941
                      0.483950
                      0.483960
                      0.483970
                      0.483980
                      0.483990
                      0.484001
                      0.484011
                      0.484021
                      0.484031
                      0.484042
                      0.484052
                      0.484063
                      0.484073
                      0.484083
                      0.484094
                      0.484104
                      0.484114
                      0.484125
                      0.484135
                      0.484145
                      0.484156
                      0.484166
                      0.484176
                      0.484187
                      0.484197
                      0.484207
                      0.484218
                      0.484228
                      0.484238
                      0.484249
                      0.484259
                      0.484269
                      0.484280
                      0.484290
                      0.484300
                      0.484311
                      0.484321
                      0.484331
                      0.484342
                      0.484352
                      0.484362
                      0.484373
                      0.484383
                      0.484393
                      0.484404
                      0.484414
                      0.484424
                      0.484435
                      0.484445
                      0.484455
                      0.484466
                      0.484476
                      0.484486
                      0.484496
                      0.484507
                      0.484517
                      0.484527
                      0.484538
                      0.484548
                      0.484558
                      0.484569
                      0.484579
        </DataArray>
        <DataArray type="Float32" Name="T_l" format="ascii">
                    450.000002
                    450.000003
                    450.000004
                    450.000005
                    450.000006
                    450.000007
                    450.000007
                    450.000008
                    450.000008
                    450.000008
                    450.000007
                    450.000007
                    450.000005
                    450.000003
                    450.000001
                    449.999999
                    449.999996
                    449.999994
                    449.999991
                    449.999988
                    449.999986
                    449.999984
                    449.999982
                    449.999980
                    449.999979
                    449.999978
                    449.999977
                    449.999976
                    449.999976
                    449.999975
                    449.999975
                    449.999975
                    449.999975
                    449.999975
                    449.999975
                    449.999976
                    449.999976
                    449.999976
                    449.999977
                    449.999977
                    449.999977
                    449.999978
                    449.999978
                    449.999978
                    449.999979
                    449.999979
                    449.999980
                    449.999980
                    449.999980
                    449.999981
                    449.999981
                    449.999981
                    449.999982
                    449.999982
                    449.999983
                    449.999983
                    449.999983
                    449.999984
                    449.999984
                    449.999985
                    449.999985
                    449.999985
                    449.999986
                    449.999986
                    449.999986
                    449.999987
                    449.999987
                    449.999988
                    449.999988
                    449.999988
                    449.999989
                    449.999989
                    449.999989
                    449.999990
                    449.999990
                    449.999991
                    449.999991
                    449.999991
                    449.999992
                    449.999992
                    449.999993
                    449.999993
                    449.999993
                    449.999994
                    449.999994
                    449.999994
                    449.999995
                    449.999995
                    449.999996
                    449.999996
                    449.999996
                    449.999997
                    449.999997
                    449.999998
                    449.999998
                    449.999998
                    449.999999
                    449.999999
                    449.999999
                    450.000000
        </DataArray>
        <DataArray type="Float32" Name="T_g" format="ascii">
                    449.816000
                    449.816611
                    449.817220
                    449.817825
                    449.818420
                    449.818997
                    449.819537
                    449.820018
                    449.820410
                    449.820676
                    449.820777
                    449.820671
                    449.820317
                    449.819681
                    449.818732
                    449.817456
                    449.815851
                    449.813938
                    449.811761
                    449.809388
                    449.806911
                    449.804438
                    449.802088
                    449.799976
                    449.798207
                    449.796862
                    449.795997
                    449.795637
                    449.795780
                    449.796401
                    449.797461
                    449.798907
                    449.800684
                    449.802739
                    449.805020
                    449.807482
                    449.810086
                    449.812799
                    449.815596
                    449.818455
                    449.821360
                    449.824299
                    449.827262
                    449.830242
                    449.833234
                    449.836234
                    449.839240
                    449.842249
                    449.845261
                    449.848274
                    449.851288
                    449.854302
                    449.857316
                    449.860329
                    449.863342
                    449.866355
                    449.869367
                    449.872379
                    449.875390
                    449.878401
                    449.881411
                    449.884421
                    449.887430
                    449.890438
                    449.893446
                    449.896453
                    449.899460
                    449.902467
                    449.905472
                    449.908478
                    449.911483
                    449.914488
                    449.917492
                    449.920496
                    449.923499
                    449.926502
                    449.929505
                    449.932507
                    449.935509
                    449.938511
                    449.941512
                    449.944514
                    449.947514
                    449.950515
                    449.953515
                    449.956516
                    449.959516
                    449.962515
                    449.965515
                    449.968514
                    449.971514
                    449.974513
                    449.977512
                    449.980510
                    449.983509
                    449.986508
                    449.989506
                    449.992505
                    449.995503
                    449.998501
        </DataArray>
      </CellData>
      <PointData>
        <DataArray type="Int32" Name="node_id" format="ascii">
          0
          1
          2
          3
          4
          5
          6
          7
          8
          9
          10
          11
          12
          13
          14
          15
          16
          17
          18
          19
          20
          21
          22
          23
          24
          25
          26
          27
          28
          29
          30
          31
          32
          33
          34
          35
          36
          37
          38
          39
          40
          41
          42
          43
          44
          45
          46
          47
          48
          49
          50
          51
          52
          53
          54
          55
          56
          57
          58
          59
          60
          61
          62
          63
          64
          65
          66
          67
          68
          69
          70
          71
          72
          73
          74
          75
          76
          77
          78
          79
          80
          81
          82
          83
          84
          85
          86
          87
          88
          89
          90
          91
          92
          93
          94
          95
          96
          97
          98
          99
          100
        </DataArray>
        <DataArray type="Float32" Name="v_l" format="ascii">
                     10.000000
                     10.116303
                     10.231294
                     10.345003
                     10.457427
                     10.568512
                     10.678123
                     10.786014
                     10.891812
                     10.995019
                     11.095022
                     11.191132
                     11.282631
                     11.368822
                     11.449081
                     11.522905
                     11.589939
                     11.650002
                     11.703089
                     11.749361
                     11.789131
                     11.822831
                     11.850986
                     11.874179
                     11.893018
                     11.908110
                     11.920036
                     11.929335
                     11.936491
                     11.941930
                     11.946011
                     11.949039
                     11.951258
                     11.952867
                     11.954020
                     11.954839
                     11.955414
                     11.955814
                     11.956089
                     11.956277
                     11.956404
                     11.956489
                     11.956545
                     11.956582
                     11.956607
                     11.956622
                     11.956632
                     11.956639
                     11.956643
                     11.956645
                     11.956647
                     11.956648
                     11.956648
                     11.956649
                     11.956649
                     11.956649
                     11.956649
                     11.956649
                     11.956649
                     11.956649
                     11.956649
                     11.956649
                     11.956649
                     11.956649
                     11.956649
                     11.956650
                     11.956650
                     11.956650
                     11.956650
                     11.956650
                     11.956650
                     11.956650
                     11.956650
                     11.956650
                     11.956650
                     11.956650