<VTKFile type="UnstructuredGrid" version="0.1" byte_order="LittleEndian">
  <UnstructuredGrid>
    <Piece NumberOfPoints="101" NumberOfCells="100">
      <Points>
        <DataArray type = "Float32" NumberOfComponents="3" format="ascii">
          0.000000 0 0
          0.120000 0 0
          0.240000 0 0
          0.360000 0 0
          0.480000 0 0
          0.600000 0 0
          0.720000 0 0
          0.840000 0 0
          0.960000 0 0
          1.080000 0 0
          1.200000 0 0
          1.320000 0 0
          1.440000 0 0
          1.560000 0 0
          1.680000 0 0
          1.800000 0 0
          1.920000 0 0
          2.040000 0 0
          2.160000 0 0
          2.280000 0 0
          2.400000 0 0
          2.520000 0 0
          2.640000 0 0
          2.760000 0 0
          2.880000 0 0
          3.000000 0 0
          3.120000 0 0
          3.240000 0 0
          3.360000 0 0
          3.480000 0 0
          3.600000 0 0
          3.720000 0 0
          3.840000 0 0
          3.960000 0 0
          4.080000 0 0
          4.200000 0 0
          4.320000 0 0
          4.440000 0 0
          4.560000 0 0
          4.680000 0 0
          4.800000 0 0
          4.920000 0 0
          5.040000 0 0
          5.160000 0 0
          5.280000 0 0
          5.400000 0 0
          5.520000 0 0
          5.640000 0 0
          5.760000 0 0
          5.880000 0 0
          6.000000 0 0
          6.120000 0 0
          6.240000 0 0
          6.360000 0 0
          6.480000 0 0
          6.600000 0 0
          6.720000 0 0
          6.840000 0 0
          6.960000 0 0
          7.080000 0 0
          7.200000 0 0
          7.320000 0 0
          7.440000 0 0
          7.560000 0 0
          7.680000 0 0
          7.800000 0 0
          7.920000 0 0
          8.040000 0 0
          8.160000 0 0
          8.280000 0 0
          8.400000 0 0
          8.520000 0 0
          8.640000 0 0
          8.760000 0 0
          8.880000 0 0
          9.000000 0 0
          9.120000 0 0
          9.240000 0 0
          9.360000 0 0
          9.480000 0 0
          9.600000 0 0
          9.720000 0 0
          9.840000 0 0
          9.960000 0 0
          10.080000 0 0
          10.200000 0 0
          10.320000 0 0
          10.440000 0 0
          10.560000 0 0
          10.680000 0 0
          10.800000 0 0
          10.920000 0 0
          11.040000 0 0
          11.160000 0 0
          11.280000 0 0
          11.400000 0 0
          11.520000 0 0
          11.640000 0 0
          11.760000 0 0
          11.880000 0 0
          12.000000 0 0
        </DataArray>
      </Points>
      <Cells>
        <DataArray type = "Int32" Name="connectivity" format="ascii">
          0 1
          1 2
          2 3
          3 4
          4 5
          5 6
          6 7
          7 8
          8 9
          9 10
          10 11
          11 12
          12 13
          13 14
          14 15
          15 16
          16 17
          17 18
          18 19
          19 20
          20 21
          21 22
          22 23
          23 24
          24 25
          25 26
          26 27
          27 28
          28 29
          29 30
          30 31
          31 32
          32 33
          33 34
          34 35
          35 36
          36 37
          37 38
          38 39
          39 40
          40 41
          41 42
          42 43
          43 44
          44 45
          45 46
          46 47
          47 48
          48 49
          49 50
          50 51
          51 52
          52 53
          53 54
          54 55
          55 56
          56 57
          57 58
          58 59
          59 60
          60 61
          61 62
          62 63
          63 64
          64 65
          65 66
          66 67
          67 68
          68 69
          69 70
          70 71
          71 72
          72 73
          73 74
          74 75
          75 76
          76 77
          77 78
          78 79
          79 80
          80 81
          81 82
          82 83
          83 84
          84 85
          85 86
          86 87
          87 88
          88 89
          89 90
          90 91
          91 92
          92 93
          93 94
          94 95
          95 96
          96 97
          97 98
          98 99
          99 100
        </DataArray>
        <DataArray type = "Int32" Name="offsets" format="ascii">
          2
          4
          6
          8
          10
          12
          14
          16
          18
          20
          22
          24
          26
          28
          30
          32
          34
          36
          38
          40
          42
          44
          46
          48
          50
          52
          54
          56
          58
          60
          62
          64
          66
          68
          70
          72
          74
          76
          78
          80
          82
          84
          86
          88
          90
          92
          94
          96
          98
          100
          102
          104
          106
          108
          110
          112
          114
          116
          118
          120
          122
          124
          126
          128
          130
          132
          134
          136
          138
          140
          142
          144
          146
          148
          150
          152
          154
          156
          158
          160
          162
          164
          166
          168
          170
          172
          174
          176
          178
          180
          182
          184
          186
          188
          190
          192
          194
          196
          198
          200
        </DataArray>
        <DataArray type = "UInt8" Name="types" format="ascii">
          3
          3
          3
          3
          3
          3
          3
          3
          3
          3
          3
          3
          3
          3
          3
          3
          3
          3
          3
          3
          3
          3
          3
          3
          3
          3
          3
          3
          3
          3
          3
          3
          3
          3
          3
          3
          3
          3
          3
          3
          3
          3
          3
          3
          3
          3
          3
          3
          3
          3
          3
          3
          3
          3
          3
          3
          3
          3
          3
          3
          3
          3
          3
          3
          3
          3
          3
          3
          3
          3
          3
          3
          3
          3
          3
          3
          3
          3
          3
          3
          3
          3
          3
          3
          3
          3
          3
          3
          3
          3
          3
          3
          3
          3
          3
          3
          3
          3
          3
          3
        </DataArray>
      </Cells>
      <CellData>
        <DataArray type="Float32" Name="alpha" format="ascii">
                      0.209197
                      0.218086
                      0.226682
                      0.235002
                      0.243060
                      0.250869
                      0.258442
                      0.265791
                      0.272926
                      0.279858
                      0.286596
                      0.293148
                      0.299524
                      0.305730
                      0.311773
                      0.317660
                      0.323396
                      0.328984
                      0.334428
                      0.339729
                      0.344887
                      0.349897
                      0.354755
                      0.359451
                      0.363972
                      0.368302
                      0.372422
                      0.376306
                      0.379925
                      0.383250
                      0.386243
                      0.388869
                      0.391088
                      0.392861
                      0.394149
                      0.394915
                      0.395123
                      0.394745
                      0.393753
                      0.392130
                      0.389863
                      0.386949
                      0.383391
                      0.379203
                      0.374408
                      0.369037
                      0.363130
                      0.356735
                      0.349909
                      0.342712
                      0.335213
                      0.327483
                      0.319594
                      0.311622
                      0.303640
                      0.295720
                      0.287929
                      0.280332
                      0.272986
                      0.265940
                      0.259237
                      0.252912
                      0.246991
                      0.241491
                      0.236423
                      0.231788
                      0.227582
                      0.223794
                      0.220407
                      0.217402
                      0.214755
                      0.212441
                      0.210430
                      0.208696
                      0.207211
                      0.205947
                      0.204879
                      0.203981
                      0.203232
                      0.202611
                      0.202098
                      0.201678
                      0.201335
                      0.201058
                      0.200834
                      0.200654
                      0.200511
                      0.200398
                      0.200308
                      0.200237
                      0.200182
                      0.200139
                      0.200106
                      0.200081
                      0.200061
                      0.200046
                      0.200035
                      0.200026
                      0.200019
                      0.200015
        </DataArray>
        <DataArray type="Float32" Name="p" format="ascii">
                 100089.373247
                 100089.944139
                 100090.515114
                 100091.086169
                 100091.657302
                 100092.228510
                 100092.799791
                 100093.371145
                 100093.942570
                 100094.514063
                 100095.085620
                 100095.657235
                 100096.228894
                 100096.800570
                 100097.372213
                 100097.943736
                 100098.514991
                 100099.085740
                 100099.655610
                 100100.224047
                 100100.790245
                 100101.353078
                 100101.911016
                 100102.462033
                 100103.003521
                 100103.532196
                 100104.044016
                 100104.534098
                 100104.996654
                 100105.424925
                 100105.811131
                 100106.146424
                 100106.420847
                 100106.623285
                 100106.741427
                 100106.761709
                 100106.669259
                 100106.447839
                 100106.079781
                 100105.545930
                 100104.825597
                 100103.896543
                 100102.734999
                 100101.315744
                 100099.612272
                 100097.597061
                 100095.241990
                 100092.518920
                 100089.400478
                 100085.861074
                 100081.878155
                 100077.433710
                 100072.515995
                 100067.121420
                 100061.256515
                 100054.939825
                 100048.203564
                 100041.094813
                 100033.676040
                 100026.024755
                 100018.232111
                 100010.400436
                 100002.639586
                  99995.062538
                  99987.780586
                  99980.898363
                  99974.509146
                  99968.690953
                  99963.503768
                  99958.988053
                  99955.164589
                  99952.035538
                  99949.586468
                  99947.789072
                  99946.604235
                  99945.985175
                  99945.880409
                  99946.236378
                  99946.999634
                  99948.118550
                  99949.544564
                  99951.233000
                  99953.143526
                  99955.240330
                  99957.492072
                  99959.871673
                  99962.356006
                  99964.925528
                  99967.563882
                  99970.257498
                  99972.995209
                  99975.767901
                  99978.568185
                  99981.390113
                  99984.228928
                  99987.080851
                  99989.942896
                  99992.812748
                  99995.688476
                  99998.556422
        </DataArray>
        <DataArray type="Float32" Name="rho_l" format="ascii">
                    889.793087
                    889.793085
                    889.793084
                    889.793082
                    889.793081
                    889.793079
                    889.793078
                    889.793077
                    889.793076
                    889.793074
                    889.793073
                    889.793072
                    889.793071
                    889.793070
                    889.793069
                    889.793068
                    889.793067
                    889.793066
                    889.793066
                    889.793065
                    889.793064
                    889.793063
                    889.793062
                    889.793062
                    889.793061
                    889.793061
                    889.793060
                    889.793059
                    889.793059
                    889.793059
                    889.793058
                    889.793058
                    889.793058
                    889.793057
                    889.793057
                    889.793057
                    889.793057
                    889.793057
                    889.793058
                    889.793058
                    889.793058
                    889.793058
                    889.793059
                    889.793059
                    889.793059
                    889.793059
                    889.793059
                    889.793059
                    889.793058
                    889.793058
                    889.793057
                    889.793056
                    889.793055
                    889.793053
                    889.793052
                    889.793050
                    889.793047
                    889.793045
                    889.793042
                    889.793039
                    889.793036
                    889.793032
                    889.793029
                    889.793026
                    889.793022
                    889.793019
                    889.793016
                    889.793014
                    889.793011
                    889.793009
                    889.793007
                    889.793006
                    889.793005
                    889.793004
                    889.793004
                    889.793003
                    889.793003
                    889.793004
                    889.793004
                    889.793005
                    889.793005
                    889.793006
                    889.793007
                    889.793008
                    889.793009
                    889.793011
                    889.793012
                    889.793013
                    889.793015
                    889.793016
                    889.793017
                    889.793019
                    889.793020
                    889.793022
                    889.793023
                    889.793025
                    889.793026
                    889.793028
                    889.793029
                    889.793030
        </DataArray>
        <DataArray type="Float32" Name="rho_g" format="ascii">
                      0.484886
                      0.484889
                      0.484892
                      0.484894
                      0.484897
                      0.484899
                      0.484902
                      0.484904
                      0.484906
                      0.484908
                      0.484911
                      0.484913
                      0.484915
                      0.484917
                      0.484919
                      0.484921
                      0.484923
                      0.484925
                      0.484927
                      0.484929
                      0.484932
                      0.484934
                      0.484936
                      0.484938
                      0.484940
                      0.484942
                      0.484944
                      0.484946
                      0.484948
                      0.484950
                      0.484952
                      0.484953
                      0.484955
                      0.484956
                      0.484957
                      0.484957
                      0.484957
                      0.484957
                      0.484956
                      0.484955
                      0.484952
                      0.484949
                      0.484946
                      0.484941
                      0.484935
                      0.484928
                      0.484920
                      0.484911
                      0.484900
                      0.484887
                      0.484873
                      0.484857
                      0.484840
                      0.484820
                      0.484799
                      0.484776
                      0.484752
                      0.484726
                      0.484699
                      0.484671
                      0.484642
                      0.484614
                      0.484585
                      0.484558
                      0.484531
                      0.484506
                      0.484483
                      0.484462
                      0.484443
                      0.484427
                      0.484413
                      0.484402
                      0.484394
                      0.484387
                      0.484383
                      0.484381
                      0.484381
                      0.484383
                      0.484386
                      0.484390
                      0.484396
                      0.484402
                      0.484409
                      0.484417
                      0.484426
                      0.484435
                      0.484444
                      0.484454
                      0.484464
                      0.484474
                      0.484484
                      0.484494
                      0.484505
                      0.484515
                      0.484526
                      0.484536
                      0.484547
                      0.484558
                      0.484568
                      0.484579
        </DataArray>
        <DataArray type="Float32" Name="T_l" format="ascii">
                    450.000002
                    450.000004
                    450.000005
                    450.000007
                    450.000009
                    450.000010
                    450.000012
                    450.000014
                    450.000015
                    450.000016
                    450.000018
                    450.000019
                    450.000021
                    450.000022
                    450.000023
                    450.000024
                    450.000026
                    450.000027
                    450.000028
                    450.000029
                    450.000030
                    450.000031
                    450.000032
                    450.000033
                    450.000034
                    450.000035
                    450.000036
                    450.000037
                    450.000037
                    450.000038
                    450.000039
                    450.000039
                    450.000039
                    450.000040
                    450.000040
                    450.000040
                    450.000040
                    450.000040
                    450.000039
                    450.000039
                    450.000038
                    450.000037
                    450.000036
                    450.000035
                    450.000034
                    450.000033
                    450.000031
                    450.000030
                    450.000028
                    450.000027
                    450.000025
                    450.000023
                    450.000021
                    450.000019
                    450.000017
                    450.000015
                    450.000013
                    450.000012
                    450.000010
                    450.000008
                    450.000006
                    450.000004
                    450.000002
                    450.000001
                    449.999999
                    449.999998
                    449.999997
                    449.999995
                    449.999994
                    449.999994
                    449.999993
                    449.999992
                    449.999992
                    449.999991
                    449.999991
                    449.999991
                    449.999991
                    449.999991
                    449.999991
                    449.999991
                    449.999991
                    449.999991
                    449.999992
                    449.999992
                    449.999992
                    449.999993
                    449.999993
                    449.999993
                    449.999994
                    449.999994
                    449.999995
                    449.999995
                    449.999995
                    449.999996
                    449.999996
                    449.999997
                    449.999997
                    449.999998
                    449.999998
                    449.999998
        </DataArray>
        <DataArray type="Float32" Name="T_g" format="ascii">
                    450.123971
                    450.123802
                    450.123806
                    450.123949
                    450.124204
                    450.124546
                    450.124959
                    450.125429
                    450.125945
                    450.126499
                    450.127084
                    450.127692
                    450.128319
                    450.128958
                    450.129604
                    450.130252
                    450.130897
                    450.131535
                    450.132161
                    450.132773
                    450.133367
                    450.133940
                    450.134489
                    450.135010
                    450.135498
                    450.135949
                    450.136358
                    450.136717
                    450.137022
                    450.137262
                    450.137430
                    450.137517
                    450.137511
                    450.137401
                    450.137174
                    450.136816
                    450.136313
                    450.135648
                    450.134802
                    450.133758
                    450.132494
                    450.130987
                    450.129215
                    450.127151
                    450.124769
                    450.122042
                    450.118940
                    450.115437
                    450.111504
                    450.107115
                    450.102250
                    450.096891
                    450.091026
                    450.084655
                    450.077785
                    450.070439
                    450.062651
                    450.054475
                    450.045976
                    450.037240
                    450.028364
                    450.019459
                    450.010644
                    450.002078
                    449.993869
                    449.986102
                    449.978874
                    449.972270
                    449.966353
                    449.961166
                    449.956733
                    449.953055
                    449.950117
                    449.947888
                    449.946328
                    449.945386
                    449.945007
                    449.945133
                    449.945707
                    449.946675
                    449.947983
                    449.949584
                    449.951435
                    449.953497
                    449.955737
                    449.958125
                    449.960637
                    449.963251
                    449.965950
                    449.968719
                    449.971547
                    449.974423
                    449.977339
                    449.980289
                    449.983267
                    449.986270
                    449.989294
                    449.992337
                    449.995396
                    449.998457
        </DataArray>
      </CellData>
      <PointData>
        <DataArray type="Int32" Name="node_id" format="ascii">
          0
          1
          2
          3
          4
          5
          6
          7
          8
          9
          10
          11
          12
          13
          14
          15
          16
          17
          18
          19
          20
          21
          22
          23
          24
          25
          26
          27
          28
          29
          30
          31
          32
          33
          34
          35
          36
          37
          38
          39
          40
          41
          42
          43
          44
          45
          46
          47
          48
          49
          50
          51
          52
          53
          54
          55
          56
          57
          58
          59
          60
          61
          62
          63
          64
          65
          66
          67
          68
          69
          70
          71
          72
          73
          74
          75
          76
          77
          78
          79
          80
          81
          82
          83
          84
          85
          86
          87
          88
          89
          90
          91
          92
          93
          94
          95
          96
          97
          98
          99
          100
        </DataArray>
        <DataArray type="Float32" Name="v_l" format="ascii">
                     10.000000
                     10.116303
                     10.231299
                     10.345031
                     10.457539
                     10.568862
                     10.679037
                     10.788098
                     10.896078
                     11.003008
                     11.108919
                     11.213839
                     11.317796
                     11.420814
                     11.522919
                     11.624135
                     11.724483
                     11.823984
                     11.922658
                     12.020521
                     12.117590
                     12.213877
                     12.309390
                     12.404135
                     12.498113
                     12.591316
                     12.683734
                     12.775344
                     12.866117
                     12.956014
                     13.044983
                     13.132963
                     13.219880
                     13.305648
                     13.390171
                     13.473340
                     13.555037
                     13.635137
                     13.713505
                     13.790003
                     13.864490
                     13.936823
                     14.006862
                     14.074473
                     14.139526
                     14.201903
                     14.261496
                     14.318213
                     14.371977
                     14.422728
                     14.470425
                     14.515048
                     14.556595
                     14.595086
                     14.630560
                     14.663076
                     14.692712
                     14.719564
                     14.743741
                     14.765369
                     14.784586
                     14.801541
                     14.816388
                     14.829289
                     14.840410
                     14.849916
                     14.857971
                     14.864735
                     14.870363
                     14.874999
                     14.878780
                     14.881831
                     14.884266
                     14.886187
                     14.887684
                     14.888835