<VTKFile type="UnstructuredGrid" version="0.1" byte_order="LittleEndian">
  <UnstructuredGrid>
    <Piece NumberOfPoints="101" NumberOfCells="100">
      <Points>
        <DataArray type = "Float32" NumberOfComponents="3" format="ascii">
          0.000000 0 0
          0.120000 0 0
          0.240000 0 0
          0.360000 0 0
          0.480000 0 0
          0.600000 0 0
          0.720000 0 0
          0.840000 0 0
          0.960000 0 0
          1.080000 0 0
          1.200000 0 0
          1.320000 0 0
          1.440000 0 0
          1.560000 0 0
          1.680000 0 0
          1.800000 0 0
          1.920000 0 0
          2.040000 0 0
          2.160000 0 0
          2.280000 0 0
          2.400000 0 0
          2.520000 0 0
          2.640000 0 0
          2.760000 0 0
          2.880000 0 0
          3.000000 0 0
          3.120000 0 0
          3.240000 0 0
          3.360000 0 0
          3.480000 0 0
          3.600000 0 0
          3.720000 0 0
          3.840000 0 0
          3.960000 0 0
          4.080000 0 0
          4.200000 0 0
          4.320000 0 0
          4.440000 0 0
          4.560000 0 0
          4.680000 0 0
          4.800000 0 0
          4.920000 0 0
          5.040000 0 0
          5.160000 0 0
          5.280000 0 0
          5.400000 0 0
          5.520000 0 0
          5.640000 0 0
          5.760000 0 0
          5.880000 0 0
          6.000000 0 0
          6.120000 0 0
          6.240000 0 0
          6.360000 0 0
          6.480000 0 0
          6.600000 0 0
          6.720000 0 0
          6.840000 0 0
          6.960000 0 0
          7.080000 0 0
          7.200000 0 0
          7.320000 0 0
          7.440000 0 0
          7.560000 0 0
          7.680000 0 0
          7.800000 0 0
          7.920000 0 0
          8.040000 0 0
          8.160000 0 0
          8.280000 0 0
          8.400000 0 0
          8.520000 0 0
          8.640000 0 0
          8.760000 0 0
          8.880000 0 0
          9.000000 0 0
          9.120000 0 0
          9.240000 0 0
          9.360000 0 0
          9.480000 0 0
          9.600000 0 0
          9.720000 0 0
          9.840000 0 0
          9.960000 0 0
          10.080000 0 0
          10.200000 0 0
          10.320000 0 0
          10.440000 0 0
          10.560000 0 0
          10.680000 0 0
          10.800000 0 0
          10.920000 0 0
          11.040000 0 0
          11.160000 0 0
          11.280000 0 0
          11.400000 0 0
          11.520000 0 0
          11.640000 0 0
          11.760000 0 0
          11.880000 0 0
          12.000000 0 0
        </DataArray>
      </Points>
      <Cells>
        <DataArray type = "Int32" Name="connectivity" format="ascii">
          0 1
          1 2
          2 3
          3 4
          4 5
          5 6
          6 7
          7 8
          8 9
          9 10
          10 11
          11 12
          12 13
          13 14
          14 15
          15 16
          16 17
          17 18
          18 19
          19 20
          20 21
          21 22
          22 23
          23 24
          24 25
          25 26
          26 27
          27 28
          28 29
          29 30
          30 31
          31 32
          32 33
          33 34
          34 35
          35 36
          36 37
          37 38
          38 39
          39 40
          40 41
          41 42
          42 43
          43 44
          44 45
          45 46
          46 47
          47 48
          48 49
          49 50
          50 51
          51 52
          52 53
          53 54
          54 55
          55 56
          56 57
          57 58
          58 59
          59 60
          60 61
          61 62
          62 63
          63 64
          64 65
          65 66
          66 67
          67 68
          68 69
          69 70
          70 71
          71 72
          72 73
          73 74
          74 75
          75 76
          76 77
          77 78
          78 79
          79 80
          80 81
          81 82
          82 83
          83 84
          84 85
          85 86
          86 87
          87 88
          88 89
          89 90
          90 91
          91 92
          92 93
          93 94
          94 95
          95 96
          96 97
          97 98
          98 99
          99 100
        </DataArray>
        <DataArray type = "Int32" Name="offsets" format="ascii">
          2
          4
          6
          8
          10
          12
          14
          16
          18
          20
          22
          24
          26
          28
          30
          32
          34
          36
          38
          40
          42
          44
          46
          48
          50
          52
          54
          56
          58
          60
          62
          64
          66
          68
          70
          72
          74
          76
          78
          80
          82
          84
          86
          88
          90
          92
          94
          96
          98
          100
          102
          104
          106
          108
          110
          112
          114
          116
          118
          120
          122
          124
          126
          128
          130
          132
          134
          136
          138
          140
          142
          144
          146
          148
          150
          152
          154
          156
          158
          160
          162
          164
          166
          168
          170
          172
          174
          176
          178
          180
          182
          184
          186
          188
          190
          192
          194
          196
          198
          200
        </DataArray>
        <DataArray type = "UInt8" Name="types" format="ascii">
          3
          3
          3
          3
          3
          3
          3
          3
          3
          3
          3
          3
          3
          3
          3
          3
          3
          3
          3
          3
          3
          3
          3
          3
          3
          3
          3
          3
          3
          3
          3
          3
          3
          3
          3
          3
          3
          3
          3
          3
          3
          3
          3
          3
          3
          3
          3
          3
          3
          3
          3
          3
          3
          3
          3
          3
          3
          3
          3
          3
          3
          3
          3
          3
          3
          3
          3
          3
          3
          3
          3
          3
          3
          3
          3
          3
          3
          3
          3
          3
          3
          3
          3
          3
          3
          3
          3
          3
          3
          3
          3
          3
          3
          3
          3
          3
          3
          3
          3
          3
        </DataArray>
      </Cells>
      <CellData>
        <DataArray type="Float32" Name="alpha" format="ascii">
                      0.205890
                      0.213991
                      0.222538
                      0.230983
                      0.239199
                      0.247166
                      0.254890
                      0.262381
                      0.269650
                      0.276709
                      0.283566
                      0.290233
                      0.296717
                      0.303026
                      0.309169
                      0.315151
                      0.320980
                      0.326666
                      0.332216
                      0.337633
                      0.342913
                      0.348048
                      0.353037
                      0.357904
                      0.362698
                      0.367484
                      0.372299
                      0.377108
                      0.381775
                      0.386086
                      0.389848
                      0.393011
                      0.395746
                      0.398433
                      0.401586
                      0.405787
                      0.411545
                      0.419061
                      0.428037
                      0.437645
                      0.446853
                      0.454195
                      0.458453
                      0.459526
                      0.457732
                      0.451780
                      0.439980
                      0.421883
                      0.398282
                      0.370864
                      0.341743
                      0.313037
                      0.286553
                      0.263598
                      0.244872
                      0.230448
                      0.219896
                      0.212525
                      0.207561
                      0.204359
                      0.202394
                      0.201249
                      0.200616
                      0.200283
                      0.200118
                      0.200041
                      0.200009
                      0.199998
                      0.199995
                      0.199996
                      0.199997
                      0.199998
                      0.199999
                      0.200000
                      0.200001
                      0.200001
                      0.200001
                      0.200001
                      0.200001
                      0.200001
                      0.200001
                      0.200001
                      0.200001
                      0.200001
                      0.200001
                      0.200001
                      0.200001
                      0.200001
                      0.200001
                      0.200001
                      0.200001
                      0.200001
                      0.200001
                      0.200001
                      0.200001
                      0.200001
                      0.200001
                      0.200001
                      0.200001
                      0.200001
        </DataArray>
        <DataArray type="Float32" Name="p" format="ascii">
                 100009.769938
                 100010.351117
                 100010.942631
                 100011.544122
                 100012.155289
                 100012.775863
                 100013.405609
                 100014.044329
                 100014.691866
                 100015.348102
                 100016.012961
                 100016.686393
                 100017.368343
                 100018.058700
                 100018.757276
                 100019.463907
                 100020.178658
                 100020.901928
                 100021.634114
                 100022.374819
                 100023.122162
                 100023.873296
                 100024.626763
                 100025.385729
                 100026.159589
                 100026.961124
                 100027.798818
                 100028.665694
                 100029.531303
                 100030.347135
                 100031.069732
                 100031.690148
                 100032.244538
                 100032.803826
                 100033.478876
                 100034.413987
                 100035.743060
                 100037.503144
                 100039.576275
                 100041.729519
                 100043.711404
                 100045.244094
                 100045.931233
                 100046.482860
                 100046.652019
                 100045.832606
                 100043.461757
                 100039.013573
                 100031.904344
                 100021.486554
                 100007.148618
                  99988.556428
                  99966.030573
                  99940.921232
                  99915.595866
                  99892.709618
                  99874.270724
                  99860.950841
                  99852.548263
                  99848.322414
                  99847.244984
                  99848.304111
                  99850.690707
                  99853.845785
                  99857.417929
                  99861.203362
                  99865.095535
                  99869.043789
                  99873.006094
                  99876.977656
                  99880.955993
                  99884.939680
                  99888.927688
                  99892.919847
                  99896.916340
                  99900.917355
                  99904.922945
                  99908.933068
                  99912.947638
                  99916.966546
                  99920.989650
                  99925.016756
                  99929.047682
                  99933.082244
                  99937.120252
                  99941.161511
                  99945.205826
                  99949.252998
                  99953.302830
                  99957.355123
                  99961.409679
                  99965.466298
                  99969.524781
                  99973.584932
                  99977.646540
                  99981.709423
                  99985.773373
                  99989.837932
                  99993.905407
                  99997.969820
        </DataArray>
        <DataArray type="Float32" Name="rho_l" format="ascii">
                    889.793035
                    889.793037
                    889.793040
                    889.793044
                    889.793045
                    889.793044
                    889.793041
                    889.793035
                    889.793030
                    889.793027
                    889.793027
                    889.793028
                    889.793029
                    889.793031
                    889.793031
                    889.793031
                    889.793029
                    889.793025
                    889.793022
                    889.793021
                    889.793020
                    889.793021
                    889.793021
                    889.793022
                    889.793023
                    889.793022
                    889.793021
                    889.793020
                    889.793018
                    889.793017
                    889.793016
                    889.793016
                    889.793017
                    889.793017
                    889.793018
                    889.793018
                    889.793018
                    889.793018
                    889.793017
                    889.793015
                    889.793013
                    889.793012
                    889.793010
                    889.793010
                    889.793011
                    889.793013
                    889.793015
                    889.793018
                    889.793020
                    889.793021
                    889.793019
                    889.793014
                    889.793006
                    889.792995
                    889.792984
                    889.792973
                    889.792965
                    889.792959
                    889.792955
                    889.792953
                    889.792952
                    889.792953
                    889.792954
                    889.792956
                    889.792958
                    889.792960
                    889.792962
                    889.792964
                    889.792966
                    889.792968
                    889.792970
                    889.792972
                    889.792974
                    889.792976
                    889.792978
                    889.792980
                    889.792982
                    889.792984
                    889.792986
                    889.792989
                    889.792991
                    889.792993
                    889.792995
                    889.792997
                    889.792999
                    889.793001
                    889.793003
                    889.793005
                    889.793007
                    889.793009
                    889.793011
                    889.793013
                    889.793016
                    889.793018
                    889.793020
                    889.793022
                    889.793024
                    889.793026
                    889.793028
                    889.793030
        </DataArray>
        <DataArray type="Float32" Name="rho_g" format="ascii">
                      0.484587
                      0.484590
                      0.484593
                      0.484596
                      0.484599
                      0.484601
                      0.484604
                      0.484607
                      0.484610
                      0.484612
                      0.484615
                      0.484617
                      0.484620
                      0.484622
                      0.484625
                      0.484627
                      0.484630
                      0.484632
                      0.484635
                      0.484638
                      0.484641
                      0.484644
                      0.484646
                      0.484649
                      0.484652
                      0.484655
                      0.484658
                      0.484661
                      0.484665
                      0.484668
                      0.484671
                      0.484674
                      0.484676
                      0.484678
                      0.484681
                      0.484685
                      0.484690
                      0.484697
                      0.484705
                      0.484714
                      0.484722
                      0.484728
                      0.484731
                      0.484734
                      0.484736
                      0.484733
                      0.484725
                      0.484710
                      0.484684
                      0.484646
                      0.484593
                      0.484525
                      0.484443
                      0.484351
                      0.484258
                      0.484174
                      0.484107
                      0.484059
                      0.484028
                      0.484013
                      0.484010
                      0.484015
                      0.484024
                      0.484036
                      0.484050
                      0.484065
                      0.484079
                      0.484094
                      0.484110
                      0.484125
                      0.484140
                      0.484155
                      0.484170
                      0.484185
                      0.484200
                      0.484215
                      0.484230
                      0.484245
                      0.484260
                      0.484275
                      0.484290
                      0.484306
                      0.484321
                      0.484336
                      0.484351
                      0.484366
                      0.484381
                      0.484396
                      0.484411
                      0.484426
                      0.484441
                      0.484456
                      0.484471
                      0.484486
                      0.484501
                      0.484517
                      0.484532
                      0.484547
                      0.484562
                      0.484577
        </DataArray>
        <DataArray type="Float32" Name="T_l" format="ascii">
                    450.000001
                    450.000000
                    449.999997
                    449.999994
                    449.999993
                    449.999995
                    449.999998
                    450.000004
                    450.000009
                    450.000012
                    450.000013
                    450.000012
                    450.000011
                    450.000010
                    450.000010
                    450.000011
                    450.000013
                    450.000017
                    450.000020
                    450.000022
                    450.000023
                    450.000023
                    450.000023
                    450.000023
                    450.000023
                    450.000023
                    450.000025
                    450.000027
                    450.000029
                    450.000031
                    450.000032
                    450.000032
                    450.000032
                    450.000032
                    450.000032
                    450.000032
                    450.000033
                    450.000034
                    450.000037
                    450.000039
                    450.000042
                    450.000045
                    450.000046
                    450.000047
                    450.000046
                    450.000044
                    450.000040
                    450.000035
                    450.000029
                    450.000022
                    450.000015
                    450.000008
                    450.000001
                    449.999995
                    449.999990
                    449.999985
                    449.999982
                    449.999979
                    449.999978
                    449.999977
                    449.999977
                    449.999977
                    449.999977
                    449.999977
                    449.999978
                    449.999978
                    449.999979
                    449.999979
                    449.999980
                    449.999981
                    449.999981
                    449.999982
                    449.999982
                    449.999983
                    449.999984
                    449.999984
                    449.999985
                    449.999985
                    449.999986
                    449.999986
                    449.999987
                    449.999988
                    449.999988
                    449.999989
                    449.999989
                    449.999990
                    449.999991
                    449.999991
                    449.999992
                    449.999992
                    449.999993
                    449.999994
                    449.999994
                    449.999995
                    449.999995
                    449.999996
                    449.999997
                    449.999997
                    449.999998
                    449.999998
        </DataArray>
        <DataArray type="Float32" Name="T_g" format="ascii">
                    450.041127
                    450.040748
                    450.040552
                    450.040585
                    450.040779
                    450.041075
                    450.041425
                    450.041824
                    450.042274
                    450.042800
                    450.043427
                    450.044151
                    450.044958
                    450.045814
                    450.046690
                    450.047546
                    450.048360
                    450.049138
                    450.049899
                    450.050642
                    450.051416
                    450.052236
                    450.053079
                    450.053956
                    450.054852
                    450.055747
                    450.056627
                    450.057463
                    450.058225
                    450.058892
                    450.059397
                    450.059777
                    450.060088
                    450.060409
                    450.060874
                    450.061626
                    450.062789
                    450.064392
                    450.066284
                    450.068189
                    450.069814
                    450.070870
                    450.070956
                    450.070849
                    450.070291
                    450.068646
                    450.065352
                    450.059853
                    450.051480
                    450.039585
                    450.023492
                    450.002884
                    449.978153
                    449.950638
                    449.922871
                    449.897696
                    449.877274
                    449.862336
                    449.852683
                    449.847545
                    449.845872
                    449.846149
                    449.848280
                    449.851100
                    449.854434
                    449.858021
                    449.861754
                    449.865573
                    449.869431
                    449.873316
                    449.877226
                    449.881155
                    449.885102
                    449.889068
                    449.893053
                    449.897057
                    449.901079
                    449.905120
                    449.909178
                    449.913252
                    449.917341
                    449.921447
                    449.925569
                    449.929709
                    449.933867
                    449.938044
                    449.942237
                    449.946447
                    449.950671
                    449.954906
                    449.959152
                    449.963408
                    449.967672
                    449.971945
                    449.976229
                    449.980523
                    449.984828
                    449.989147
                    449.993482
                    449.997827
        </DataArray>
      </CellData>
      <PointData>
        <DataArray type="Int32" Name="node_id" format="ascii">
          0
          1
          2
          3
          4
          5
          6
          7
          8
          9
          10
          11
          12
          13
          14
          15
          16
          17
          18
          19
          20
          21
          22
          23
          24
          25
          26
          27
          28
          29
          30
          31
          32
          33
          34
          35
          36
          37
          38
          39
          40
          41
          42
          43
          44
          45
          46
          47
          48
          49
          50
          51
          52
          53
          54
          55
          56
          57
          58
          59
          60
          61
          62
          63
          64
          65
          66
          67
          68
          69
          70
          71
          72
          73
          74
          75
          76
          77
          78
          79
          80
          81
          82
          83
          84
          85
          86
          87
          88
          89
          90
          91
          92
          93
          94
          95
          96
          97
          98
          99
          100
        </DataArray>
        <DataArray type="Float32" Name="v_l" format="ascii">
                     10.000000
                     10.116554
                     10.232097
                     10.346424
                     10.459519
                     10.571408
                     10.682127
                     10.791711
                     10.900194
                     11.007607
                     11.113981
                     11.219346
                     11.323731
                     11.427161
                     11.529664
                     11.631264
                     11.731984
                     11.831845
                     11.930872
                     12.029086
                     12.126510
                     12.223162
                     12.319051
                     12.414177
                     12.508543
                     12.602171
                     12.695119
                     12.787476
                     12.879335
                     12.970740
                     13.061629
                     13.151817
                     13.241018
                     13.328946
                     13.415443
                     13.500608
                     13.584874
                     13.668979
                     13.753839
                     13.840353
                     13.929194
                     14.020633
                     14.114408
                     14.209693
                     14.305186
                     14.399129
                     14.489450
                     14.574000
                     14.650799
                     14.718189
                     14.774978
                     14.820549
                     14.854872
                     14.878545
                     14.892920
                     14.900131
                     14.902624
                     14.902450
                     14.901443
                     14.899672
                     14.897618
                     14.895751
                     14.894295
                     14.893266
                     14.892585
                     14.892154
                     14.891892
                     14.891737
                     14.891649
                     14.891599
                     14.891572
                     14.891557
                     14.891550
                     14.891546
                     14.891544
                     14.891543