<VTKFile type="UnstructuredGrid" version="0.1" byte_order="LittleEndian">
  <UnstructuredGrid>
    <Piece NumberOfPoints="101" NumberOfCells="100">
      <Points>
        <DataArray type = "Float32" NumberOfComponents="3" format="ascii">
          0.000000 0 0
          0.120000 0 0
          0.240000 0 0
          0.360000 0 0
          0.480000 0 0
          0.600000 0 0
          0.720000 0 0
          0.840000 0 0
          0.960000 0 0
          1.080000 0 0
          1.200000 0 0
          1.320000 0 0
          1.440000 0 0
          1.560000 0 0
          1.680000 0 0
          1.800000 0 0
          1.920000 0 0
          2.040000 0 0
          2.160000 0 0
          2.280000 0 0
          2.400000 0 0
          2.520000 0 0
          2.640000 0 0
          2.760000 0 0
          2.880000 0 0
          3.000000 0 0
          3.120000 0 0
          3.240000 0 0
          3.360000 0 0
          3.480000 0 0
          3.600000 0 0
          3.720000 0 0
          3.840000 0 0
          3.960000 0 0
          4.080000 0 0
          4.200000 0 0
          4.320000 0 0
          4.440000 0 0
          4.560000 0 0
          4.680000 0 0
          4.800000 0 0
          4.920000 0 0
          5.040000 0 0
          5.160000 0 0
          5.280000 0 0
          5.400000 0 0
          5.520000 0 0
          5.640000 0 0
          5.760000 0 0
          5.880000 0 0
          6.000000 0 0
          6.120000 0 0
          6.240000 0 0
          6.360000 0 0
          6.480000 0 0
          6.600000 0 0
          6.720000 0 0
          6.840000 0 0
          6.960000 0 0
          7.080000 0 0
          7.200000 0 0
          7.320000 0 0
          7.440000 0 0
          7.560000 0 0
          7.680000 0 0
          7.800000 0 0
          7.920000 0 0
          8.040000 0 0
          8.160000 0 0
          8.280000 0 0
          8.400000 0 0
          8.520000 0 0
          8.640000 0 0
          8.760000 0 0
          8.880000 0 0
          9.000000 0 0
          9.120000 0 0
          9.240000 0 0
          9.360000 0 0
          9.480000 0 0
          9.600000 0 0
          9.720000 0 0
          9.840000 0 0
          9.960000 0 0
          10.080000 0 0
          10.200000 0 0
          10.320000 0 0
          10.440000 0 0
          10.560000 0 0
          10.680000 0 0
          10.800000 0 0
          10.920000 0 0
          11.040000 0 0
          11.160000 0 0
          11.280000 0 0
          11.400000 0 0
          11.520000 0 0
          11.640000 0 0
          11.760000 0 0
          11.880000 0 0
          12.000000 0 0
        </DataArray>
      </Points>
      <Cells>
        <DataArray type = "Int32" Name="connectivity" format="ascii">
          0 1
          1 2
          2 3
          3 4
          4 5
          5 6
          6 7
          7 8
          8 9
          9 10
          10 11
          11 12
          12 13
          13 14
          14 15
          15 16
          16 17
          17 18
          18 19
          19 20
          20 21
          21 22
          22 23
          23 24
          24 25
          25 26
          26 27
          27 28
          28 29
          29 30
          30 31
          31 32
          32 33
          33 34
          34 35
          35 36
          36 37
          37 38
          38 39
          39 40
          40 41
          41 42
          42 43
          43 44
          44 45
          45 46
          46 47
          47 48
          48 49
          49 50
          50 51
          51 52
          52 53
          53 54
          54 55
          55 56
          56 57
          57 58
          58 59
          59 60
          60 61
          61 62
          62 63
          63 64
          64 65
          65 66
          66 67
          67 68
          68 69
          69 70
          70 71
          71 72
          72 73
          73 74
          74 75
          75 76
          76 77
          77 78
          78 79
          79 80
          80 81
          81 82
          82 83
          83 84
          84 85
          85 86
          86 87
          87 88
          88 89
          89 90
          90 91
          91 92
          92 93
          93 94
          94 95
          95 96
          96 97
          97 98
          98 99
          99 100
        </DataArray>
        <DataArray type = "Int32" Name="offsets" format="ascii">
          2
          4
          6
          8
          10
          12
          14
          16
          18
          20
          22
          24
          26
          28
          30
          32
          34
          36
          38
          40
          42
          44
          46
          48
          50
          52
          54
          56
          58
          60
          62
          64
          66
          68
          70
          72
          74
          76
          78
          80
          82
          84
          86
          88
          90
          92
          94
          96
          98
          100
          102
          104
          106
          108
          110
          112
          114
          116
          118
          120
          122
          124
          126
          128
          130
          132
          134
          136
          138
          140
          142
          144
          146
          148
          150
          152
          154
          156
          158
          160
          162
          164
          166
          168
          170
          172
          174
          176
          178
          180
          182
          184
          186
          188
          190
          192
          194
          196
          198
          200
        </DataArray>
        <DataArray type = "UInt8" Name="types" format="ascii">
          3
          3
          3
          3
          3
          3
          3
          3
          3
          3
          3
          3
          3
          3
          3
          3
          3
          3
          3
          3
          3
          3
          3
          3
          3
          3
          3
          3
          3
          3
          3
          3
          3
          3
          3
          3
          3
          3
          3
          3
          3
          3
          3
          3
          3
          3
          3
          3
          3
          3
          3
          3
          3
          3
          3
          3
          3
          3
          3
          3
          3
          3
          3
          3
          3
          3
          3
          3
          3
          3
          3
          3
          3
          3
          3
          3
          3
          3
          3
          3
          3
          3
          3
          3
          3
          3
          3
          3
          3
          3
          3
          3
          3
          3
          3
          3
          3
          3
          3
          3
        </DataArray>
      </Cells>
      <CellData>
        <DataArray type="Float32" Name="alpha" format="ascii">
                      0.205890
                      0.213991
                      0.222540
                      0.230985
                      0.239200
                      0.247166
                      0.254889
                      0.262379
                      0.269648
                      0.276707
                      0.283565
                      0.290233
                      0.296718
                      0.303029
                      0.309173
                      0.315157
                      0.320988
                      0.326674
                      0.332225
                      0.337642
                      0.342921
                      0.348055
                      0.353043
                      0.357908
                      0.362700
                      0.367484
                      0.372296
                      0.377102
                      0.381766
                      0.386076
                      0.389841
                      0.393011
                      0.395757
                      0.398459
                      0.401628
                      0.405844
                      0.411611
                      0.419128
                      0.428087
                      0.437661
                      0.446801
                      0.454095
                      0.458286
                      0.459283
                      0.457451
                      0.451442
                      0.439593
                      0.421479
                      0.397919
                      0.370612
                      0.341661
                      0.313155
                      0.286859
                      0.264039
                      0.245372
                      0.230935
                      0.220334
                      0.212910
                      0.207888
                      0.204621
                      0.202592
                      0.201390
                      0.200712
                      0.200347
                      0.200159
                      0.200067
                      0.200024
                      0.200007
                      0.200001
                      0.199999
                      0.200000
                      0.200000
                      0.200001
                      0.200002
                      0.200002
                      0.200002
                      0.200002
                      0.200002
                      0.200003
                      0.200002
                      0.200002
                      0.200002
                      0.200002
                      0.200002
                      0.200002
                      0.200002
                      0.200002
                      0.200002
                      0.200002
                      0.200002
                      0.200002
                      0.200002
                      0.200002
                      0.200002
                      0.200002
                      0.200002
                      0.200002
                      0.200002
                      0.200002
                      0.200002
        </DataArray>
        <DataArray type="Float32" Name="p" format="ascii">
                 100226.991161
                 100227.557755
                 100228.100657
                 100228.620717
                 100229.118632
                 100229.594985
                 100230.050277
                 100230.484945
                 100230.899369
                 100231.293873
                 100231.668743
                 100232.024226
                 100232.360523
                 100232.677750
                 100232.975929
                 100233.255095
                 100233.515512
                 100233.757771
                 100233.982442
                 100234.189233
                 100234.376269
                 100234.540644
                 100234.680934
                 100234.800649
                 100234.909932
                 100235.022989
                 100235.149068
                 100235.281273
                 100235.387128
                 100235.415492
                 100235.318792
                 100235.085877
                 100234.754098
                 100234.398912
                 100234.141613
                 100234.138052
                 100234.533446
                 100235.373019
                 100236.535157
                 100237.773193
                 100238.814997
                 100239.359342
                 100238.976330
                 100238.435088
                 100237.439539
                 100235.321349
                 100231.477246
                 100225.313241
                 100216.176710
                 100203.350366
                 100186.156841
                 100164.212062
                 100137.819322
                 100108.361491
                 100078.303790
                 100050.499834
                 100027.250590
                 100009.359864
                  99996.646973
                  99988.356953
                  99983.447016
                  99980.865105
                  99979.749551
                  99979.490937
                  99979.703421
                  99980.158816
                  99980.728832
                  99981.348451
                  99981.986802
                  99982.624449
                  99983.255157
                  99983.878581
                  99984.494384
                  99985.102478
                  99985.703228
                  99986.297219
                  99986.885088
                  99987.467358
                  99988.044619
                  99988.617295
                  99989.185788
                  99989.750518
                  99990.311895
                  99990.870320
                  99991.426182
                  99991.979867
                  99992.531758
                  99993.082241
                  99993.631698
                  99994.180511
                  99994.729068
                  99995.277756
                  99995.826953
                  99996.377036
                  99996.928378
                  99997.481342
                  99998.036323
                  99998.593344
                  99999.155036
                  99999.717797
        </DataArray>
        <DataArray type="Float32" Name="rho_l" format="ascii">
                   1000.000023
                   1000.000023
                   1000.000023
                   1000.000023
                   1000.000023
                   1000.000023
                   1000.000023
                   1000.000023
                   1000.000023
                   1000.000023
                   1000.000023
                   1000.000023
                   1000.000023
                   1000.000023
                   1000.000023
                   1000.000023
                   1000.000023
                   1000.000023
                   1000.000023
                   1000.000023
                   1000.000023
                   1000.000023
                   1000.000023
                   1000.000023
                   1000.000023
                   1000.000024
                   1000.000024
                   1000.000024
                   1000.000024
                   1000.000024
                   1000.000024
                   1000.000024
                   1000.000023
                   1000.000023
                   1000.000023
                   1000.000023
                   1000.000023
                   1000.000024
                   1000.000024
                   1000.000024
                   1000.000024
                   1000.000024
                   1000.000024
                   1000.000024
                   1000.000024
                   1000.000024
                   1000.000023
                   1000.000023
                   1000.000022
                   1000.000020
                   1000.000019
                   1000.000016
                   1000.000014
                   1000.000011
                   1000.000008
                   1000.000005
                   1000.000003
                   1000.000001
                   1000.000000
                    999.999999
                    999.999998
                    999.999998
                    999.999998
                    999.999998
                    999.999998
                    999.999998
                    999.999998
                    999.999998
                    999.999998
                    999.999998
                    999.999998
                    999.999998
                    999.999998
                    999.999999
                    999.999999
                    999.999999
                    999.999999
                    999.999999
                    999.999999
                    999.999999
                    999.999999
                    999.999999
                    999.999999
                    999.999999
                    999.999999
                    999.999999
                    999.999999
                    999.999999
                    999.999999
                    999.999999
                    999.999999
                   1000.000000
                   1000.000000
                   1000.000000
                   1000.000000
                   1000.000000
                   1000.000000
                   1000.000000
                   1000.000000
                   1000.000000
        </DataArray>
        <DataArray type="Float32" Name="rho_g" format="ascii">
                      0.502270
                      0.502276
                      0.502281
                      0.502286
                      0.502291
                      0.502296
                      0.502301
                      0.502305
                      0.502309
                      0.502313
                      0.502317
                      0.502320
                      0.502324
                      0.502327
                      0.502330
                      0.502333
                      0.502335
                      0.502338
                      0.502340
                      0.502342
                      0.502344
                      0.502345
                      0.502347
                      0.502348
                      0.502349
                      0.502350
                      0.502351
                      0.502353
                      0.502354
                      0.502354
                      0.502353
                      0.502351
                      0.502348
                      0.502344
                      0.502341
                      0.502341
                      0.502345
                      0.502354
                      0.502365
                      0.502378
                      0.502388
                      0.502394
                      0.502390
                      0.502384
                      0.502374
                      0.502353
                      0.502315
                      0.502253
                      0.502162
                      0.502034
                      0.501862
                      0.501642
                      0.501378
                      0.501084
                      0.500783
                      0.500505
                      0.500273
                      0.500094
                      0.499966
                      0.499884
                      0.499834
                      0.499809
                      0.499797
                      0.499795
                      0.499797
                      0.499802
                      0.499807
                      0.499813
                      0.499820
                      0.499826
                      0.499833
                      0.499839
                      0.499845
                      0.499851
                      0.499857
                      0.499863
                      0.499869
                      0.499875
                      0.499880
                      0.499886
                      0.499892
                      0.499898
                      0.499903
                      0.499909
                      0.499914
                      0.499920
                      0.499925
                      0.499931
                      0.499936
                      0.499942
                      0.499947
                      0.499953
                      0.499958
                      0.499964
                      0.499969
                      0.499975
                      0.499980
                      0.499986
                      0.499992
                      0.499997
        </DataArray>
      </CellData>
      <PointData>
        <DataArray type="Int32" Name="node_id" format="ascii">
          0
          1
          2
          3
          4
          5
          6
          7
          8
          9
          10
          11
          12
          13
          14
          15
          16
          17
          18
          19
          20
          21
          22
          23
          24
          25
          26
          27
          28
          29
          30
          31
          32
          33
          34
          35
          36
          37
          38
          39
          40
          41
          42
          43
          44
          45
          46
          47
          48
          49
          50
          51
          52
          53
          54
          55
          56
          57
          58
          59
          60
          61
          62
          63
          64
          65
          66
          67
          68
          69
          70
          71
          72
          73
          74
          75
          76
          77
          78
          79
          80
          81
          82
          83
          84
          85
          86
          87
          88
          89
          90
          91
          92
          93
          94
          95
          96
          97
          98
          99
          100
        </DataArray>
        <DataArray type="Float32" Name="v_l" format="ascii">
                     10.000000
                     10.116562
                     10.232114
                     10.346450
                     10.459553
                     10.571449
                     10.682172
                     10.791757
                     10.900238
                     11.007649
                     11.114020
                     11.219382
                     11.323764
                     11.427194
                     11.529697
                     11.631299
                     11.732021
                     11.831887
                     11.930919
                     12.029138
                     12.126568
                     12.223225
                     12.319117
                     12.414246
                     12.508615
                     12.602245
                     12.695194
                     12.787550
                     12.879403
                     12.970796
                     13.061671
                     13.151844
                     13.241036
                     13.328969
                     13.415488
                     13.500695
                     13.585016
                     13.669180
                     13.754095
                     13.840651
                     13.929510
                     14.020933
                     14.114644
                     14.209803
                     14.305091
                     14.398743
                     14.488684
                     14.572772
                     14.649047
                     14.715924
                     14.772320
                     14.817700
                     14.852093
                     14.876115
                     14.891047
                     14.898883
                     14.901838
                     14.901891
                     14.901172
                     14.899717
                     14.897919
                     14.896223
                     14.894871
                     14.893900
                     14.893248
                     14.892830
                     14.892573
                     14.892417
                     14.892325
                     14.892271
                     14.892239
                     14.892220
                     14.892208
                     14.892200
                     14.892195
                     14.892190
                     14.892186
                     14.892183
                     14.892180
                     14.892177
                     14.892173
                     14.892170
                     14.892167
                     14.892164
                     14.892162
                     14.892159
                     14.892156
                     14.892153
                     14.892151
                     14.892148
                     14.892146
                     14.892143
                     14.892141
                     14.892139
                     14.892137
                     14.892135
                     14.892132
                     14.892131
                     14.892129
                     14.892126
                     14.892125
        </DataArray>
        <DataArray type="Float32" Name="v_g" format="ascii">
                      0.000000
                     -0.009775
                     -0.019165
                     -0.028225
                     -0.037020
                     -0.045599
                     -0.053994
                     -0.062228
                     -0.070317
                     -0.078274
                     -0.086111
                     -0.093836
                     -0.101456
                     -0.108987
                     -0.116457
                     -0.123894
                     -0.131306
                     -0.138640
                     -0.145815
                     -0.152825
                     -0.159878
                     -0.167410
                     -0.175816
                     -0.184938
                     -0.193652
                     -0.199997
                     -0.202126
                     -0.199902
                     -0.196402
                     -0.198095
                     -0.212615
                     -0.244529
                     -0.291627
                     -0.344482
                     -0.388295
                     -0.403915
                     -0.370980
                     -0.276663
                     -0.125586
                      0.057742
                      0.236876
                      0.374023
                      0.425727
                      0.372795
                      0.263811
                      0.052668
                     -0.342188
                     -0.982682
                     -1.911060
                     -3.152359
                     -4.711943
                     -6.567300
                     -8.656503
                    -10.869829
                    -13.055564
                    -15.052430
                    -16.736314
                    -18.049834
                    -19.013840
                    -19.680987
                    -20.115562
                    -20.382651
                    -20.538805
                    -20.626565
                    -20.674772
                    -20.701212
                    -20.716239
                    -20.725586
                    -20.732140
                    -20.737336
                    -20.742095
                    -20.746657
                    -20.751039
                    -20.755285
                    -20.759414
                    -20.763428
                    -20.767313
                    -20.771058
                    -20.774655
                    -20.778096
                    -20.781378
                    -20.784499
                    -20.787457
                    -20.790249
                    -20.792875
                    -20.795333
                    -20.797623
                    -20.799743
                    -20.801693
                    -20.803473
                    -20.805081
                    -20.806516
                    -20.807778
                    -20.808866
                    -20.809779
                    -20.810518
                    -20.811080
                    -20.811466
                    -20.811679
                    -20.811658
                    -20.811737
        </DataArray>
      </PointData>
    </Piece>
  </UnstructuredGrid>
</VTKFile>
