<VTKFile type="UnstructuredGrid" version="0.1" byte_order="LittleEndian">
  <UnstructuredGrid>
    <Piece NumberOfPoints="101" NumberOfCells="100">
      <Points>
        <DataArray type = "Float32" NumberOfComponents="3" format="ascii">
          0.000000 0 0
          0.120000 0 0
          0.240000 0 0
          0.360000 0 0
          0.480000 0 0
          0.600000 0 0
          0.720000 0 0
          0.840000 0 0
          0.960000 0 0
          1.080000 0 0
          1.200000 0 0
          1.320000 0 0
          1.440000 0 0
          1.560000 0 0
          1.680000 0 0
          1.800000 0 0
          1.920000 0 0
          2.040000 0 0
          2.160000 0 0
          2.280000 0 0
          2.400000 0 0
          2.520000 0 0
          2.640000 0 0
          2.760000 0 0
          2.880000 0 0
          3.000000 0 0
          3.120000 0 0
          3.240000 0 0
          3.360000 0 0
          3.480000 0 0
          3.600000 0 0
          3.720000 0 0
          3.840000 0 0
          3.960000 0 0
          4.080000 0 0
          4.200000 0 0
          4.320000 0 0
          4.440000 0 0
          4.560000 0 0
          4.680000 0 0
          4.800000 0 0
          4.920000 0 0
          5.040000 0 0
          5.160000 0 0
          5.280000 0 0
          5.400000 0 0
          5.520000 0 0
          5.640000 0 0
          5.760000 0 0
          5.880000 0 0
          6.000000 0 0
          6.120000 0 0
          6.240000 0 0
          6.360000 0 0
          6.480000 0 0
          6.600000 0 0
          6.720000 0 0
          6.840000 0 0
          6.960000 0 0
          7.080000 0 0
          7.200000 0 0
          7.320000 0 0
          7.440000 0 0
          7.560000 0 0
          7.680000 0 0
          7.800000 0 0
          7.920000 0 0
          8.040000 0 0
          8.160000 0 0
          8.280000 0 0
          8.400000 0 0
          8.520000 0 0
          8.640000 0 0
          8.760000 0 0
          8.880000 0 0
          9.000000 0 0
          9.120000 0 0
          9.240000 0 0
          9.360000 0 0
          9.480000 0 0
          9.600000 0 0
          9.720000 0 0
          9.840000 0 0
          9.960000 0 0
          10.080000 0 0
          10.200000 0 0
          10.320000 0 0
          10.440000 0 0
          10.560000 0 0
          10.680000 0 0
          10.800000 0 0
          10.920000 0 0
          11.040000 0 0
          11.160000 0 0
          11.280000 0 0
          11.400000 0 0
          11.520000 0 0
          11.640000 0 0
          11.760000 0 0
          11.880000 0 0
          12.000000 0 0
        </DataArray>
      </Points>
      <Cells>
        <DataArray type = "Int32" Name="connectivity" format="ascii">
          0 1
          1 2
          2 3
          3 4
          4 5
          5 6
          6 7
          7 8
          8 9
          9 10
          10 11
          11 12
          12 13
          13 14
          14 15
          15 16
          16 17
          17 18
          18 19
          19 20
          20 21
          21 22
          22 23
          23 24
          24 25
          25 26
          26 27
          27 28
          28 29
          29 30
          30 31
          31 32
          32 33
          33 34
          34 35
          35 36
          36 37
          37 38
          38 39
          39 40
          40 41
          41 42
          42 43
          43 44
          44 45
          45 46
          46 47
          47 48
          48 49
          49 50
          50 51
          51 52
          52 53
          53 54
          54 55
          55 56
          56 57
          57 58
          58 59
          59 60
          60 61
          61 62
          62 63
          63 64
          64 65
          65 66
          66 67
          67 68
          68 69
          69 70
          70 71
          71 72
          72 73
          73 74
          74 75
          75 76
          76 77
          77 78
          78 79
          79 80
          80 81
          81 82
          82 83
          83 84
          84 85
          85 86
          86 87
          87 88
          88 89
          89 90
          90 91
          91 92
          92 93
          93 94
          94 95
          95 96
          96 97
          97 98
          98 99
          99 100
        </DataArray>
        <DataArray type = "Int32" Name="offsets" format="ascii">
          2
          4
          6
          8
          10
          12
          14
          16
          18
          20
          22
          24
          26
          28
          30
          32
          34
          36
          38
          40
          42
          44
          46
          48
          50
          52
          54
          56
          58
          60
          62
          64
          66
          68
          70
          72
          74
          76
          78
          80
          82
          84
          86
          88
          90
          92
          94
          96
          98
          100
          102
          104
          106
          108
          110
          112
          114
          116
          118
          120
          122
          124
          126
          128
          130
          132
          134
          136
          138
          140
          142
          144
          146
          148
          150
          152
          154
          156
          158
          160
          162
          164
          166
          168
          170
          172
          174
          176
          178
          180
          182
          184
          186
          188
          190
          192
          194
          196
          198
          200
        </DataArray>
        <DataArray type = "UInt8" Name="types" format="ascii">
          3
          3
          3
          3
          3
          3
          3
          3
          3
          3
          3
          3
          3
          3
          3
          3
          3
          3
          3
          3
          3
          3
          3
          3
          3
          3
          3
          3
          3
          3
          3
          3
          3
          3
          3
          3
          3
          3
          3
          3
          3
          3
          3
          3
          3
          3
          3
          3
          3
          3
          3
          3
          3
          3
          3
          3
          3
          3
          3
          3
          3
          3
          3
          3
          3
          3
          3
          3
          3
          3
          3
          3
          3
          3
          3
          3
          3
          3
          3
          3
          3
          3
          3
          3
          3
          3
          3
          3
          3
          3
          3
          3
          3
          3
          3
          3
          3
          3
          3
          3
        </DataArray>
      </Cells>
      <CellData>
        <DataArray type="Float32" Name="alpha" format="ascii">
                      0.205890
                      0.213990
                      0.222534
                      0.231004
                      0.239289
                      0.247211
                      0.254531
                      0.261459
                      0.268893
                      0.278006
                      0.289011
                      0.299699
                      0.306392
                      0.307508
                      0.305116
                      0.297803
                      0.284694
                      0.267373
                      0.249092
                      0.232965
                      0.220630
                      0.212178
                      0.206850
                      0.203699
                      0.201928
                      0.200974
                      0.200480
                      0.200232
                      0.200110
                      0.200052
                      0.200025
                      0.200012
                      0.200006
                      0.200004
                      0.200003
                      0.200002
                      0.200002
                      0.200002
                      0.200002
                      0.200002
                      0.200002
                      0.200002
                      0.200002
                      0.200002
                      0.200002
                      0.200002
                      0.200002
                      0.200002
                      0.200002
                      0.200002
                      0.200002
                      0.200002
                      0.200002
                      0.200002
                      0.200002
                      0.200002
                      0.200002
                      0.200002
                      0.200002
                      0.200002
                      0.200002
                      0.200001
                      0.200001
                      0.200001
                      0.200001
                      0.200001
                      0.200001
                      0.200001
                      0.200001
                      0.200001
                      0.200001
                      0.200001
                      0.200001
                      0.200001
                      0.200001
                      0.200001
                      0.200001
                      0.200001
                      0.200001
                      0.200001
                      0.200001
                      0.200001
                      0.200001
                      0.200001
                      0.200001
                      0.200001
                      0.200001
                      0.200001
                      0.200001
                      0.200001
                      0.200001
                      0.200001
                      0.200001
                      0.200001
                      0.200001
                      0.200001
                      0.200000
                      0.200000
                      0.200000
                      0.200000
        </DataArray>
        <DataArray type="Float32" Name="p" format="ascii">
                  99825.764503
                  99826.346137
                  99826.922758
                  99827.498416
                  99828.077644
                  99828.635779
                  99829.125330
                  99829.571916
                  99830.124451
                  99831.036463
                  99832.439326
                  99833.760241
                  99833.871496
                  99833.479417
                  99832.539314
                  99830.313922
                  99826.159796
                  99819.843819
                  99811.966205
                  99803.982507
                  99797.476984
                  99793.317167
                  99791.489067
                  99791.473780
                  99792.673407
                  99794.606801
                  99796.953593
                  99799.534671
                  99802.199131
                  99804.922236
                  99807.670373
                  99810.428430
                  99813.189484
                  99815.950406
                  99818.709859
                  99821.467348
                  99824.222774
                  99826.976219
                  99829.727844
                  99832.477839
                  99835.226401
                  99837.973730
                  99840.720022
                  99843.465471
                  99846.210264
                  99848.954585
                  99851.698611
                  99854.442513
                  99857.186458
                  99859.930605
                  99862.675105
                  99865.420106
                  99868.165746
                  99870.912155
                  99873.659456
                  99876.407766
                  99879.157192
                  99881.907833
                  99884.659780
                  99887.413116
                  99890.167915
                  99892.924243
                  99895.682156
                  99898.441703
                  99901.202923
                  99903.965847
                  99906.730495
                  99909.496882
                  99912.265012
                  99915.034881
                  99917.806475
                  99920.579775
                  99923.354749
                  99926.131362
                  99928.909566
                  99931.689309
                  99934.470529
                  99937.253157
                  99940.037118
                  99942.822327
                  99945.608697
                  99948.396128
                  99951.184520
                  99953.973762
                  99956.763741
                  99959.554335
                  99962.345420
                  99965.136865
                  99967.928535
                  99970.720292
                  99973.511992
                  99976.303489
                  99979.094634
                  99981.885274
                  99984.675253
                  99987.464417
                  99990.252605
                  99993.039573
                  99995.825813
                  99998.609310
        </DataArray>
        <DataArray type="Float32" Name="rho_l" format="ascii">
                    999.999983
                    999.999983
                    999.999983
                    999.999983
                    999.999983
                    999.999983
                    999.999983
                    999.999983
                    999.999983
                    999.999983
                    999.999983
                    999.999983
                    999.999983
                    999.999983
                    999.999983
                    999.999983
                    999.999983
                    999.999982
                    999.999981
                    999.999980
                    999.999980
                    999.999979
                    999.999979
                    999.999979
                    999.999979
                    999.999979
                    999.999980
                    999.999980
                    999.999980
                    999.999980
                    999.999981
                    999.999981
                    999.999981
                    999.999982
                    999.999982
                    999.999982
                    999.999982
                    999.999983
                    999.999983
                    999.999983
                    999.999984
                    999.999984
                    999.999984
                    999.999984
                    999.999985
                    999.999985
                    999.999985
                    999.999985
                    999.999986
                    999.999986
                    999.999986
                    999.999987
                    999.999987
                    999.999987
                    999.999987
                    999.999988
                    999.999988
                    999.999988
                    999.999988
                    999.999989
                    999.999989
                    999.999989
                    999.999990
                    999.999990
                    999.999990
                    999.999990
                    999.999991
                    999.999991
                    999.999991
                    999.999992
                    999.999992
                    999.999992
                    999.999992
                    999.999993
                    999.999993
                    999.999993
                    999.999993
                    999.999994
                    999.999994
                    999.999994
                    999.999995
                    999.999995
                    999.999995
                    999.999995
                    999.999996
                    999.999996
                    999.999996
                    999.999997
                    999.999997
                    999.999997
                    999.999997
                    999.999998
                    999.999998
                    999.999998
                    999.999998
                    999.999999
                    999.999999
                    999.999999
                   1000.000000
                   1000.000000
        </DataArray>
        <DataArray type="Float32" Name="rho_g" format="ascii">
                      0.498258
                      0.498263
                      0.498269
                      0.498275
                      0.498281
                      0.498286
                      0.498291
                      0.498296
                      0.498301
                      0.498310
                      0.498324
                      0.498338
                      0.498339
                      0.498335
                      0.498325
                      0.498303
                      0.498262
                      0.498198
                      0.498120
                      0.498040
                      0.497975
                      0.497933
                      0.497915
                      0.497915
                      0.497927
                      0.497946
                      0.497970
                      0.497995
                      0.498022
                      0.498049
                      0.498077
                      0.498104
                      0.498132
                      0.498160
                      0.498187
                      0.498215
                      0.498242
                      0.498270
                      0.498297
                      0.498325
                      0.498352
                      0.498380
                      0.498407
                      0.498435
                      0.498462
                      0.498490
                      0.498517
                      0.498544
                      0.498572
                      0.498599
                      0.498627
                      0.498654
                      0.498682
                      0.498709
                      0.498737
                      0.498764
                      0.498792
                      0.498819
                      0.498847
                      0.498874
                      0.498902
                      0.498929
                      0.498957
                      0.498984
                      0.499012
                      0.499040
                      0.499067
                      0.499095
                      0.499123
                      0.499150
                      0.499178
                      0.499206
                      0.499234
                      0.499261
                      0.499289
                      0.499317
                      0.499345
                      0.499373
                      0.499400
                      0.499428
                      0.499456
                      0.499484
                      0.499512
                      0.499540
                      0.499568
                      0.499596
                      0.499623
                      0.499651
                      0.499679
                      0.499707
                      0.499735
                      0.499763
                      0.499791
                      0.499819
                      0.499847
                      0.499875
                      0.499903
                      0.499930
                      0.499958
                      0.499986
        </DataArray>
      </CellData>
      <PointData>
        <DataArray type="Int32" Name="node_id" format="ascii">
          0
          1
          2
          3
          4
          5
          6
          7
          8
          9
          10
          11
          12
          13
          14
          15
          16
          17
          18
          19
          20
          21
          22
          23
          24
          25
          26
          27
          28
          29
          30
          31
          32
          33
          34
          35
          36
          37
          38
          39
          40
          41
          42
          43
          44
          45
          46
          47
          48
          49
          50
          51
          52
          53
          54
          55
          56
          57
          58
          59
          60
          61
          62
          63
          64
          65
          66
          67
          68
          69
          70
          71
          72
          73
          74
          75
          76
          77
          78
          79
          80
          81
          82
          83
          84
          85
          86
          87
          88
          89
          90
          91
          92
          93
          94
          95
          96
          97
          98
          99
          100
        </DataArray>
        <DataArray type="Float32" Name="v_l" format="ascii">
                     10.000000
                     10.116562
                     10.232111
                     10.346443
                     10.459576
                     10.571584
                     10.682400
                     10.791704
                     10.899217
                     11.005373
                     11.111722
                     11.220371
                     11.332509
                     11.446927
                     11.559527
                     11.664043
                     11.754070
                     11.825387
                     11.877186
                     11.911712
                     11.932907
                     11.944976
                     11.951400
                     11.954625
                     11.956164
                     11.956861
                     11.957164
                     11.957294
                     11.957351
                     11.957377
                     11.957392
                     11.957402
                     11.957410
                     11.957418
                     11.957426
                     11.957433
                     11.957441
                     11.957449
                     11.957457
                     11.957464
                     11.957472
                     11.957479
                     11.957487
                     11.957494
                     11.957501
                     11.957508
                     11.957515
                     11.957522
                     11.957529
                     11.957536
                     11.957542
                     11.957549
                     11.957555
                     11.957561
                     11.957567
                     11.957573
                     11.957579
                     11.957585
                     11.957590
                     11.957596
                     11.957601
                     11.957607
                     11.957612
                     11.957617
                     11.957622
                     11.957626
                     11.957631
                     11.957636
                     11.957640
                     11.957644
                     11.957648
                     11.957652
                     11.957656
                     11.957660
                     11.957663
                     11.957667
                     11.957670
                     11.957673
                     11.957676
                     11.957679
                     11.957682
                     11.957685
                     11.957687
                     11.957690
                     11.957692
                     11.957694
                     11.957696
                     11.957698
                     11.957700
                     11.957701
                     11.957702
                     11.957704
                     11.957705
                     11.957706
                     11.957707
                     11.957707
                     11.957708
                     11.957708
                     11.957709
                     11.957709
                     11.957709
        </DataArray>
        <DataArray type="Float32" Name="v_g" format="ascii">
                      0.000000
                      0.016291
                      0.031740
                      0.046848
                      0.063254
                      0.079205
                      0.085482
                      0.078129
                      0.077195
                      0.123964
                      0.255348
                      0.434831
                      0.519863
                      0.398072
                      0.177898
                     -0.190221
                     -0.807525
                     -1.709786
                     -2.835446
                     -4.029452
                     -5.109002
                     -5.952176
                     -6.533260
                     -6.894073
                     -7.098924
                     -7.204832
                     -7.252922
                     -7.269210
                     -7.268898
                     -7.260250
                     -7.247587
                     -7.233079
                     -7.217783
                     -7.202209
                     -7.186597
                     -7.171061
                     -7.155654
                     -7.140401
                     -7.125314
                     -7.110400
                     -7.095663
                     -7.081106
                     -7.066732
                     -7.052544
                     -7.038544
                     -7.024736
                     -7.011121
                     -6.997703
                     -6.984485
                     -6.971467
                     -6.958654
                     -6.946047
                     -6.933649
                     -6.921462
                     -6.909489
                     -6.897731
                     -6.886191
                     -6.874871
                     -6.863773
                     -6.852899
                     -6.842251
                     -6.831831
                     -6.821641
                     -6.811683
                     -6.801958
                     -6.792469
                     -6.783217
                     -6.774203
                     -6.765430
                     -6.756899
                     -6.748612
                     -6.740569
                     -6.732773
                     -6.725225
                     -6.717926
                     -6.710877
                     -6.704080
                     -6.697537
                     -6.691247
                     -6.685213
                     -6.679435
                     -6.673914
                     -6.668652
                     -6.663649
                     -6.658907
                     -6.654425
                     -6.650205
                     -6.646248
                     -6.642554
                     -6.639124
                     -6.635958
                     -6.633057
                     -6.630422
                     -6.628052
                     -6.625949
                     -6.624113
                     -6.622543
                     -6.621241
                     -6.620206
                     -6.619366
                     -6.618952
        </DataArray>
      </PointData>
    </Piece>
  </UnstructuredGrid>
</VTKFile>
