<VTKFile type="UnstructuredGrid" version="0.1" byte_order="LittleEndian">
  <UnstructuredGrid>
    <Piece NumberOfPoints="101" NumberOfCells="100">
      <Points>
        <DataArray type = "Float32" NumberOfComponents="3" format="ascii">
          0.000000 0 0
          0.120000 0 0
          0.240000 0 0
          0.360000 0 0
          0.480000 0 0
          0.600000 0 0
          0.720000 0 0
          0.840000 0 0
          0.960000 0 0
          1.080000 0 0
          1.200000 0 0
          1.320000 0 0
          1.440000 0 0
          1.560000 0 0
          1.680000 0 0
          1.800000 0 0
          1.920000 0 0
          2.040000 0 0
          2.160000 0 0
          2.280000 0 0
          2.400000 0 0
          2.520000 0 0
          2.640000 0 0
          2.760000 0 0
          2.880000 0 0
          3.000000 0 0
          3.120000 0 0
          3.240000 0 0
          3.360000 0 0
          3.480000 0 0
          3.600000 0 0
          3.720000 0 0
          3.840000 0 0
          3.960000 0 0
          4.080000 0 0
          4.200000 0 0
          4.320000 0 0
          4.440000 0 0
          4.560000 0 0
          4.680000 0 0
          4.800000 0 0
          4.920000 0 0
          5.040000 0 0
          5.160000 0 0
          5.280000 0 0
          5.400000 0 0
          5.520000 0 0
          5.640000 0 0
          5.760000 0 0
          5.880000 0 0
          6.000000 0 0
          6.120000 0 0
          6.240000 0 0
          6.360000 0 0
          6.480000 0 0
          6.600000 0 0
          6.720000 0 0
          6.840000 0 0
          6.960000 0 0
          7.080000 0 0
          7.200000 0 0
          7.320000 0 0
          7.440000 0 0
          7.560000 0 0
          7.680000 0 0
          7.800000 0 0
          7.920000 0 0
          8.040000 0 0
          8.160000 0 0
          8.280000 0 0
          8.400000 0 0
          8.520000 0 0
          8.640000 0 0
          8.760000 0 0
          8.880000 0 0
          9.000000 0 0
          9.120000 0 0
          9.240000 0 0
          9.360000 0 0
          9.480000 0 0
          9.600000 0 0
          9.720000 0 0
          9.840000 0 0
          9.960000 0 0
          10.080000 0 0
          10.200000 0 0
          10.320000 0 0
          10.440000 0 0
          10.560000 0 0
          10.680000 0 0
          10.800000 0 0
          10.920000 0 0
          11.040000 0 0
          11.160000 0 0
          11.280000 0 0
          11.400000 0 0
          11.520000 0 0
          11.640000 0 0
          11.760000 0 0
          11.880000 0 0
          12.000000 0 0
        </DataArray>
      </Points>
      <Cells>
        <DataArray type = "Int32" Name="connectivity" format="ascii">
          0 1
          1 2
          2 3
          3 4
          4 5
          5 6
          6 7
          7 8
          8 9
          9 10
          10 11
          11 12
          12 13
          13 14
          14 15
          15 16
          16 17
          17 18
          18 19
          19 20
          20 21
          21 22
          22 23
          23 24
          24 25
          25 26
          26 27
          27 28
          28 29
          29 30
          30 31
          31 32
          32 33
          33 34
          34 35
          35 36
          36 37
          37 38
          38 39
          39 40
          40 41
          41 42
          42 43
          43 44
          44 45
          45 46
          46 47
          47 48
          48 49
          49 50
          50 51
          51 52
          52 53
          53 54
          54 55
          55 56
          56 57
          57 58
          58 59
          59 60
          60 61
          61 62
          62 63
          63 64
          64 65
          65 66
          66 67
          67 68
          68 69
          69 70
          70 71
          71 72
          72 73
          73 74
          74 75
          75 76
          76 77
          77 78
          78 79
          79 80
          80 81
          81 82
          82 83
          83 84
          84 85
          85 86
          86 87
          87 88
          88 89
          89 90
          90 91
          91 92
          92 93
          93 94
          94 95
          95 96
          96 97
          97 98
          98 99
          99 100
        </DataArray>
        <DataArray type = "Int32" Name="offsets" format="ascii">
          2
          4
          6
          8
          10
          12
          14
          16
          18
          20
          22
          24
          26
          28
          30
          32
          34
          36
          38
          40
          42
          44
          46
          48
          50
          52
          54
          56
          58
          60
          62
          64
          66
          68
          70
          72
          74
          76
          78
          80
          82
          84
          86
          88
          90
          92
          94
          96
          98
          100
          102
          104
          106
          108
          110
          112
          114
          116
          118
          120
          122
          124
          126
          128
          130
          132
          134
          136
          138
          140
          142
          144
          146
          148
          150
          152
          154
          156
          158
          160
          162
          164
          166
          168
          170
          172
          174
          176
          178
          180
          182
          184
          186
          188
          190
          192
          194
          196
          198
          200
        </DataArray>
        <DataArray type = "UInt8" Name="types" format="ascii">
          3
          3
          3
          3
          3
          3
          3
          3
          3
          3
          3
          3
          3
          3
          3
          3
          3
          3
          3
          3
          3
          3
          3
          3
          3
          3
          3
          3
          3
          3
          3
          3
          3
          3
          3
          3
          3
          3
          3
          3
          3
          3
          3
          3
          3
          3
          3
          3
          3
          3
          3
          3
          3
          3
          3
          3
          3
          3
          3
          3
          3
          3
          3
          3
          3
          3
          3
          3
          3
          3
          3
          3
          3
          3
          3
          3
          3
          3
          3
          3
          3
          3
          3
          3
          3
          3
          3
          3
          3
          3
          3
          3
          3
          3
          3
          3
          3
          3
          3
          3
        </DataArray>
      </Cells>
      <CellData>
        <DataArray type="Float32" Name="alpha" format="ascii">
                      0.205890
                      0.213989
                      0.222532
                      0.231000
                      0.239284
                      0.247205
                      0.254525
                      0.261452
                      0.268886
                      0.278001
                      0.289012
                      0.299711
                      0.306415
                      0.307538
                      0.305147
                      0.297828
                      0.284703
                      0.267357
                      0.249049
                      0.232904
                      0.220563
                      0.212117
                      0.206800
                      0.203662
                      0.201904
                      0.200960
                      0.200471
                      0.200226
                      0.200106
                      0.200049
                      0.200022
                      0.200010
                      0.200005
                      0.200002
                      0.200001
                      0.200001
                      0.200001
                      0.200001
                      0.200001
                      0.200001
                      0.200001
                      0.200001
                      0.200001
                      0.200001
                      0.200001
                      0.200001
                      0.200001
                      0.200001
                      0.200001
                      0.200001
                      0.200001
                      0.200001
                      0.200001
                      0.200001
                      0.200001
                      0.200001
                      0.200001
                      0.200001
                      0.200000
                      0.200000
                      0.200000
                      0.200000
                      0.200000
                      0.200000
                      0.200000
                      0.200000
                      0.200000
                      0.200000
                      0.200000
                      0.200000
                      0.200000
                      0.200000
                      0.200000
                      0.200000
                      0.200000
                      0.200000
                      0.200000
                      0.200000
                      0.200000
                      0.200000
                      0.200000
                      0.200000
                      0.200000
                      0.200000
                      0.200000
                      0.200000
                      0.200000
                      0.200000
                      0.200000
                      0.200000
                      0.200000
                      0.200000
                      0.200000
                      0.200000
                      0.200000
                      0.200000
                      0.200000
                      0.200000
                      0.200000
                      0.200000
        </DataArray>
        <DataArray type="Float32" Name="p" format="ascii">
                  99920.120137
                  99920.667799
                  99921.193586
                  99921.702148
                  99922.198564
                  99922.658814
                  99923.035836
                  99923.354815
                  99923.765999
                  99924.522816
                  99925.760271
                  99926.903604
                  99926.824482
                  99926.205385
                  99924.997502
                  99922.461923
                  99917.924205
                  99911.127667
                  99902.668862
                  99894.033222
                  99886.850607
                  99882.022745
                  99879.544326
                  99878.896345
                  99879.467608
                  99880.768118
                  99882.469260
                  99884.374637
                  99886.375237
                  99888.412911
                  99890.458044
                  99892.496405
                  99894.521342
                  99896.529797
                  99898.520429
                  99900.492731
                  99902.446598
                  99904.382105
                  99906.299415
                  99908.198728
                  99910.080259
                  99911.944231
                  99913.790872
                  99915.620416
                  99917.433100
                  99919.229165
                  99921.008853
                  99922.772413
                  99924.520096
                  99926.252157
                  99927.968853
                  99929.670444
                  99931.357196
                  99933.029376
                  99934.687253
                  99936.331102
                  99937.961199
                  99939.577822
                  99941.181255
                  99942.771780
                  99944.349686
                  99945.915263
                  99947.468802
                  99949.010599
                  99950.540951
                  99952.060156
                  99953.568517
                  99955.066337
                  99956.553923
                  99958.031581
                  99959.499623
                  99960.958359
                  99962.408102
                  99963.849169
                  99965.281876
                  99966.706541
                  99968.123484
                  99969.533026
                  99970.935491
                  99972.331203
                  99973.720486
                  99975.103667
                  99976.481073
                  99977.853034
                  99979.219879
                  99980.581938
                  99981.939543
                  99983.293025
                  99984.642718
                  99985.988954
                  99987.332069
                  99988.672394
                  99990.010267
                  99991.346021
                  99992.679991
                  99994.012513
                  99995.343920
                  99996.674557
                  99998.004873
                  99999.334997
        </DataArray>
        <DataArray type="Float32" Name="rho_l" format="ascii">
                    889.792969
                    889.792958
                    889.792948
                    889.792947
                    889.792950
                    889.792957
                    889.792963
                    889.792964
                    889.792962
                    889.792957
                    889.792950
                    889.792945
                    889.792944
                    889.792944
                    889.792948
                    889.792954
                    889.792961
                    889.792966
                    889.792968
                    889.792968
                    889.792967
                    889.792966
                    889.792965
                    889.792965
                    889.792966
                    889.792967
                    889.792968
                    889.792969
                    889.792970
                    889.792971
                    889.792972
                    889.792973
                    889.792974
                    889.792975
                    889.792976
                    889.792978
                    889.792979
                    889.792980
                    889.792981
                    889.792982
                    889.792983
                    889.792984
                    889.792984
                    889.792985
                    889.792986
                    889.792987
                    889.792988
                    889.792989
                    889.792990
                    889.792991
                    889.792992
                    889.792993
                    889.792994
                    889.792995
                    889.792995
                    889.792996
                    889.792997
                    889.792998
                    889.792999
                    889.793000
                    889.793001
                    889.793001
                    889.793002
                    889.793003
                    889.793004
                    889.793005
                    889.793005
                    889.793006
                    889.793007
                    889.793008
                    889.793009
                    889.793009
                    889.793010
                    889.793011
                    889.793012
                    889.793012
                    889.793013
                    889.793014
                    889.793015
                    889.793015
                    889.793016
                    889.793017
                    889.793017
                    889.793018
                    889.793019
                    889.793020
                    889.793020
                    889.793021
                    889.793022
                    889.793022
                    889.793023
                    889.793024
                    889.793025
                    889.793025
                    889.793026
                    889.793027
                    889.793027
                    889.793028
                    889.793029
                    889.793029
        </DataArray>
        <DataArray type="Float32" Name="rho_g" format="ascii">
                      0.484289
                      0.484292
                      0.484293
                      0.484295
                      0.484297
                      0.484299
                      0.484300
                      0.484301
                      0.484303
                      0.484306
                      0.484310
                      0.484315
                      0.484314
                      0.484312
                      0.484307
                      0.484298
                      0.484281
                      0.484256
                      0.484225
                      0.484193
                      0.484167
                      0.484149
                      0.484140
                      0.484137
                      0.484140
                      0.484144
                      0.484151
                      0.484158
                      0.484165
                      0.484173
                      0.484180
                      0.484188
                      0.484195
                      0.484203
                      0.484210
                      0.484217
                      0.484224
                      0.484232
                      0.484239
                      0.484246
                      0.484253
                      0.484259
                      0.484266
                      0.484273
                      0.484280
                      0.484286
                      0.484293
                      0.484299
                      0.484306
                      0.484312
                      0.484318
                      0.484325
                      0.484331
                      0.484337
                      0.484343
                      0.484349
                      0.484355
                      0.484361
                      0.484367
                      0.484373
                      0.484379
                      0.484385
                      0.484390
                      0.484396
                      0.484402
                      0.484407
                      0.484413
                      0.484418
                      0.484424
                      0.484429
                      0.484435
                      0.484440
                      0.484445
                      0.484451
                      0.484456
                      0.484461
                      0.484467
                      0.484472
                      0.484477
                      0.484482
                      0.484487
                      0.484492
                      0.484497
                      0.484502
                      0.484507
                      0.484513
                      0.484518
                      0.484523
                      0.484527
                      0.484532
                      0.484537
                      0.484542
                      0.484547
                      0.484552
                      0.484557
                      0.484562
                      0.484567
                      0.484572
                      0.484577
                      0.484582
        </DataArray>
        <DataArray type="Float32" Name="T_l" format="ascii">
                    450.000006
                    450.000017
                    450.000027
                    450.000028
                    450.000026
                    450.000020
                    450.000014
                    450.000013
                    450.000015
                    450.000020
                    450.000027
                    450.000033
                    450.000034
                    450.000033
                    450.000029
                    450.000022
                    450.000013
                    450.000004
                    449.999997
                    449.999991
                    449.999988
                    449.999986
                    449.999985
                    449.999984
                    449.999984
                    449.999984
                    449.999984
                    449.999984
                    449.999984
                    449.999985
                    449.999985
                    449.999985
                    449.999986
                    449.999986
                    449.999986
                    449.999986
                    449.999987
                    449.999987
                    449.999987
                    449.999987
                    449.999988
                    449.999988
                    449.999988
                    449.999988
                    449.999989
                    449.999989
                    449.999989
                    449.999989
                    449.999990
                    449.999990
                    449.999990
                    449.999990
                    449.999991
                    449.999991
                    449.999991
                    449.999991
                    449.999992
                    449.999992
                    449.999992
                    449.999992
                    449.999992
                    449.999993
                    449.999993
                    449.999993
                    449.999993
                    449.999993
                    449.999994
                    449.999994
                    449.999994
                    449.999994
                    449.999994
                    449.999995
                    449.999995
                    449.999995
                    449.999995
                    449.999995
                    449.999996
                    449.999996
                    449.999996
                    449.999996
                    449.999996
                    449.999997
                    449.999997
                    449.999997
                    449.999997
                    449.999997
                    449.999998
                    449.999998
                    449.999998
                    449.999998
                    449.999998
                    449.999998
                    449.999999
                    449.999999
                    449.999999
                    449.999999
                    449.999999
                    450.000000
                    450.000000
                    450.000000
        </DataArray>
        <DataArray type="Float32" Name="T_g" format="ascii">
                    449.914392
                    449.914980
                    449.915544
                    449.916090
                    449.916623
                    449.917116
                    449.917519
                    449.917859
                    449.918297
                    449.919107
                    449.920434
                    449.921661
                    449.921576
                    449.920912
                    449.919615
                    449.916893
                    449.912021
                    449.904723
                    449.895640
                    449.886368
                    449.878655
                    449.873470
                    449.870808
                    449.870111
                    449.870723
                    449.872118
                    449.873943
                    449.875987
                    449.878134
                    449.880321
                    449.882515
                    449.884702
                    449.886875
                    449.889030
                    449.891166
                    449.893282
                    449.895378
                    449.897454
                    449.899511
                    449.901549
                    449.903567
                    449.905567
                    449.907548
                    449.909510
                    449.911454
                    449.913381
                    449.915290
                    449.917181
                    449.919056
                    449.920914
                    449.922755
                    449.924580
                    449.926389
                    449.928182
                    449.929960
                    449.931723
                    449.933472
                    449.935205
                    449.936925
                    449.938630
                    449.940323
                    449.942001
                    449.943667
                    449.945321
                    449.946962
                    449.948591
                    449.950208
                    449.951815
                    449.953410
                    449.954994
                    449.956569
                    449.958133
                    449.959687
                    449.961233
                    449.962769
                    449.964297
                    449.965816
                    449.967328
                    449.968831
                    449.970328
                    449.971818
                    449.973301
                    449.974778
                    449.976249
                    449.977715
                    449.979176
                    449.980632
                    449.982083
                    449.983530
                    449.984974
                    449.986415
                    449.987852
                    449.989287
                    449.990719
                    449.992150
                    449.993579
                    449.995007
                    449.996434
                    449.997860
                    449.999287
        </DataArray>
      </CellData>
      <PointData>
        <DataArray type="Int32" Name="node_id" format="ascii">
          0
          1
          2
          3
          4
          5
          6
          7
          8
          9
          10
          11
          12
          13
          14
          15
          16
          17
          18
          19
          20
          21
          22
          23
          24
          25
          26
          27
          28
          29
          30
          31
          32
          33
          34
          35
          36
          37
          38
          39
          40
          41
          42
          43
          44
          45
          46
          47
          48
          49
          50
          51
          52
          53
          54
          55
          56
          57
          58
          59
          60
          61
          62
          63
          64
          65
          66
          67
          68
          69
          70
          71
          72
          73
          74
          75
          76
          77
          78
          79
          80
          81
          82
          83
          84
          85
          86
          87
          88
          89
          90
          91
          92
          93
          94
          95
          96
          97
          98
          99
          100
        </DataArray>
        <DataArray type="Float32" Name="v_l" format="ascii">
                     10.000000
                     10.116557
                     10.232099
                     10.346420
                     10.459538
                     10.571527
                     10.682323
                     10.791605
                     10.899091
                     11.005214
                     11.111534
                     11.220178
                     11.332344
                     11.446813
                     11.559490
                     11.664104
                     11.754232
                     11.825616
                     11.877413
                     11.911841
                     11.932885
                     11.944770
                     11.951026
                     11.954115
                     11.955554
                     11.956188
                     11.956452
                     11.956557
                     11.956592
                     11.956602
                     11.956603
                     11.956603
                     11.956601
                     11.956599
                     11.956597
                     11.956595
                     11.956594
                     11.956592
                     11.956591
                     11.956589
                     11.956588
                     11.956586
                     11.956585
                     11.956584
                     11.956582
                     11.956581
                     11.956580
                     11.956578
                     11.956577
                     11.956576
                     11.956575
                     11.956573
                     11.956572
                     11.956571
                     11.956570
                     11.956569
                     11.956568
                     11.956566
                     11.956565
                     11.956564
                     11.956563
                     11.956562
                     11.956561
                     11.956560
                     11.956559
                     11.956558
                     11.956557
                     11.956556
                     11.956555
                     11.956554
                     11.956553
                     11.956553
                     11.956552
                     11.956551
                     11.956550
                     11.956549