<VTKFile type="UnstructuredGrid" version="0.1" byte_order="LittleEndian">
  <UnstructuredGrid>
    <Piece NumberOfPoints="101" NumberOfCells="100">
      <Points>
        <DataArray type = "Float32" NumberOfComponents="3" format="ascii">
          0.000000 0 0
          0.120000 0 0
          0.240000 0 0
          0.360000 0 0
          0.480000 0 0
          0.600000 0 0
          0.720000 0 0
          0.840000 0 0
          0.960000 0 0
          1.080000 0 0
          1.200000 0 0
          1.320000 0 0
          1.440000 0 0
          1.560000 0 0
          1.680000 0 0
          1.800000 0 0
          1.920000 0 0
          2.040000 0 0
          2.160000 0 0
          2.280000 0 0
          2.400000 0 0
          2.520000 0 0
          2.640000 0 0
          2.760000 0 0
          2.880000 0 0
          3.000000 0 0
          3.120000 0 0
          3.240000 0 0
          3.360000 0 0
          3.480000 0 0
          3.600000 0 0
          3.720000 0 0
          3.840000 0 0
          3.960000 0 0
          4.080000 0 0
          4.200000 0 0
          4.320000 0 0
          4.440000 0 0
          4.560000 0 0
          4.680000 0 0
          4.800000 0 0
          4.920000 0 0
          5.040000 0 0
          5.160000 0 0
          5.280000 0 0
          5.400000 0 0
          5.520000 0 0
          5.640000 0 0
          5.760000 0 0
          5.880000 0 0
          6.000000 0 0
          6.120000 0 0
          6.240000 0 0
          6.360000 0 0
          6.480000 0 0
          6.600000 0 0
          6.720000 0 0
          6.840000 0 0
          6.960000 0 0
          7.080000 0 0
          7.200000 0 0
          7.320000 0 0
          7.440000 0 0
          7.560000 0 0
          7.680000 0 0
          7.800000 0 0
          7.920000 0 0
          8.040000 0 0
          8.160000 0 0
          8.280000 0 0
          8.400000 0 0
          8.520000 0 0
          8.640000 0 0
          8.760000 0 0
          8.880000 0 0
          9.000000 0 0
          9.120000 0 0
          9.240000 0 0
          9.360000 0 0
          9.480000 0 0
          9.600000 0 0
          9.720000 0 0
          9.840000 0 0
          9.960000 0 0
          10.080000 0 0
          10.200000 0 0
          10.320000 0 0
          10.440000 0 0
          10.560000 0 0
          10.680000 0 0
          10.800000 0 0
          10.920000 0 0
          11.040000 0 0
          11.160000 0 0
          11.280000 0 0
          11.400000 0 0
          11.520000 0 0
          11.640000 0 0
          11.760000 0 0
          11.880000 0 0
          12.000000 0 0
        </DataArray>
      </Points>
      <Cells>
        <DataArray type = "Int32" Name="connectivity" format="ascii">
          0 1
          1 2
          2 3
          3 4
          4 5
          5 6
          6 7
          7 8
          8 9
          9 10
          10 11
          11 12
          12 13
          13 14
          14 15
          15 16
          16 17
          17 18
          18 19
          19 20
          20 21
          21 22
          22 23
          23 24
          24 25
          25 26
          26 27
          27 28
          28 29
          29 30
          30 31
          31 32
          32 33
          33 34
          34 35
          35 36
          36 37
          37 38
          38 39
          39 40
          40 41
          41 42
          42 43
          43 44
          44 45
          45 46
          46 47
          47 48
          48 49
          49 50
          50 51
          51 52
          52 53
          53 54
          54 55
          55 56
          56 57
          57 58
          58 59
          59 60
          60 61
          61 62
          62 63
          63 64
          64 65
          65 66
          66 67
          67 68
          68 69
          69 70
          70 71
          71 72
          72 73
          73 74
          74 75
          75 76
          76 77
          77 78
          78 79
          79 80
          80 81
          81 82
          82 83
          83 84
          84 85
          85 86
          86 87
          87 88
          88 89
          89 90
          90 91
          91 92
          92 93
          93 94
          94 95
          95 96
          96 97
          97 98
          98 99
          99 100
        </DataArray>
        <DataArray type = "Int32" Name="offsets" format="ascii">
          2
          4
          6
          8
          10
          12
          14
          16
          18
          20
          22
          24
          26
          28
          30
          32
          34
          36
          38
          40
          42
          44
          46
          48
          50
          52
          54
          56
          58
          60
          62
          64
          66
          68
          70
          72
          74
          76
          78
          80
          82
          84
          86
          88
          90
          92
          94
          96
          98
          100
          102
          104
          106
          108
          110
          112
          114
          116
          118
          120
          122
          124
          126
          128
          130
          132
          134
          136
          138
          140
          142
          144
          146
          148
          150
          152
          154
          156
          158
          160
          162
          164
          166
          168
          170
          172
          174
          176
          178
          180
          182
          184
          186
          188
          190
          192
          194
          196
          198
          200
        </DataArray>
        <DataArray type = "UInt8" Name="types" format="ascii">
          3
          3
          3
          3
          3
          3
          3
          3
          3
          3
          3
          3
          3
          3
          3
          3
          3
          3
          3
          3
          3
          3
          3
          3
          3
          3
          3
          3
          3
          3
          3
          3
          3
          3
          3
          3
          3
          3
          3
          3
          3
          3
          3
          3
          3
          3
          3
          3
          3
          3
          3
          3
          3
          3
          3
          3
          3
          3
          3
          3
          3
          3
          3
          3
          3
          3
          3
          3
          3
          3
          3
          3
          3
          3
          3
          3
          3
          3
          3
          3
          3
          3
          3
          3
          3
          3
          3
          3
          3
          3
          3
          3
          3
          3
          3
          3
          3
          3
          3
          3
        </DataArray>
      </Cells>
      <CellData>
        <DataArray type="Float32" Name="alpha" format="ascii">
                      0.209197
                      0.218081
                      0.226660
                      0.234919
                      0.242819
                      0.250278
                      0.257176
                      0.263357
                      0.268641
                      0.272851
                      0.275831
                      0.277470
                      0.277717
                      0.276588
                      0.274168
                      0.270602
                      0.266084
                      0.260841
                      0.255113
                      0.249137
                      0.243133
                      0.237292
                      0.231767
                      0.226672
                      0.222082
                      0.218035
                      0.214536
                      0.211568
                      0.209093
                      0.207063
                      0.205423
                      0.204119
                      0.203095
                      0.202303
                      0.201696
                      0.201238
                      0.200895
                      0.200642
                      0.200456
                      0.200322
                      0.200225
                      0.200157
                      0.200108
                      0.200074
                      0.200051
                      0.200035
                      0.200023
                      0.200016
                      0.200011
                      0.200007
                      0.200005
                      0.200004
                      0.200003
                      0.200002
                      0.200001
                      0.200001
                      0.200001
                      0.200001
                      0.200001
                      0.200001
                      0.200001
                      0.200001
                      0.200001
                      0.200001
                      0.200001
                      0.200001
                      0.200001
                      0.200001
                      0.200001
                      0.200001
                      0.200001
                      0.200001
                      0.200001
                      0.200001
                      0.200001
                      0.200001
                      0.200001
                      0.200001
                      0.200000
                      0.200000
                      0.200000
                      0.200000
                      0.200000
                      0.200000
                      0.200000
                      0.200000
                      0.200000
                      0.200000
                      0.200000
                      0.200000
                      0.200000
                      0.200000
                      0.200000
                      0.200000
                      0.200000
                      0.200000
                      0.200000
                      0.200000
                      0.200000
                      0.200000
        </DataArray>
        <DataArray type="Float32" Name="p" format="ascii">
                  99828.313535
                  99828.882345
                  99829.449783
                  99830.013961
                  99830.570130
                  99831.108947
                  99831.615048
                  99832.066390
                  99832.434539
                  99832.685817
                  99832.783031
                  99832.687602
                  99832.362014
                  99831.772660
                  99830.893165
                  99829.708200
                  99828.217577
                  99826.440149
                  99824.416728
                  99822.211105
                  99819.908315
                  99817.609680
                  99815.424896
                  99813.462192
                  99811.818236
                  99810.569613
                  99809.767360
                  99809.435218
                  99809.571413
                  99810.153076
                  99811.142053
                  99812.490960
                  99814.148593
                  99816.064187
                  99818.190387
                  99820.485017
                  99822.911869
                  99825.440785
                  99828.047275
                  99830.711885
                  99833.419449
                  99836.158344
                  99838.919794
                  99841.697266
                  99844.485954
                  99847.282369
                  99850.084000
                  99852.889064
                  99855.696305
                  99858.504849
                  99861.314091
                  99864.123619
                  99866.933157
                  99869.742519
                  99872.551585
                  99875.360277
                  99878.168549
                  99880.976373
                  99883.783735
                  99886.590630
                  99889.397058
                  99892.203025
                  99895.008537
                  99897.813604
                  99900.618235
                  99903.422441
                  99906.226234
                  99909.029624
                  99911.832625
                  99914.635249
                  99917.437506
                  99920.239411
                  99923.040975
                  99925.842211
                  99928.643132
                  99931.443751
                  99934.244080
                  99937.044132
                  99939.843920
                  99942.643458
                  99945.442758
                  99948.241834
                  99951.040698
                  99953.839364
                  99956.637846
                  99959.436156
                  99962.234308
                  99965.032315
                  99967.830192
                  99970.627950
                  99973.425604
                  99976.223168
                  99979.020653
                  99981.818075
                  99984.615447
                  99987.412781
                  99990.210091
                  99993.007391
                  99995.804694
                  99998.601647
        </DataArray>
        <DataArray type="Float32" Name="rho_l" format="ascii">
                    889.792913
                    889.792912
                    889.792911
                    889.792911
                    889.792910
                    889.792910
                    889.792910
                    889.792909
                    889.792909
                    889.792910
                    889.792910
                    889.792911
                    889.792913
                    889.792914
                    889.792916
                    889.792918
                    889.792920
                    889.792921
                    889.792923
                    889.792924
                    889.792925
                    889.792926
                    889.792927
                    889.792927
                    889.792928
                    889.792928
                    889.792928
                    889.792929
                    889.792930
                    889.792930
                    889.792931
                    889.792932
                    889.792933
                    889.792934
                    889.792935
                    889.792937
                    889.792938
                    889.792939
                    889.792941
                    889.792942
                    889.792944
                    889.792945
                    889.792946
                    889.792948
                    889.792949
                    889.792951
                    889.792952
                    889.792954
                    889.792955
                    889.792957
                    889.792958
                    889.792960
                    889.792961
                    889.792962
                    889.792964
                    889.792965
                    889.792967
                    889.792968
                    889.792970
                    889.792971
                    889.792973
                    889.792974
                    889.792976
                    889.792977
                    889.792978
                    889.792980
                    889.792981
                    889.792983
                    889.792984
                    889.792986
                    889.792987
                    889.792989
                    889.792990
                    889.792992
                    889.792993
                    889.792994
                    889.792996
                    889.792997
                    889.792999
                    889.793000
                    889.793002
                    889.793003
                    889.793005
                    889.793006
                    889.793008
                    889.793009
                    889.793010
                    889.793012
                    889.793013
                    889.793015
                    889.793016
                    889.793018
                    889.793019
                    889.793021
                    889.793022
                    889.793023
                    889.793025
                    889.793026
                    889.793028
                    889.793029
        </DataArray>
        <DataArray type="Float32" Name="rho_g" format="ascii">
                      0.483925
                      0.483927
                      0.483930
                      0.483933
                      0.483935
                      0.483937
                      0.483939
                      0.483941
                      0.483942
                      0.483943
                      0.483943
                      0.483943
                      0.483941
                      0.483939
                      0.483936
                      0.483932
                      0.483926
                      0.483920
                      0.483912
                      0.483904
                      0.483896
                      0.483887
                      0.483880
                      0.483872
                      0.483867
                      0.483862
                      0.483860
                      0.483859
                      0.483859
                      0.483862
                      0.483866
                      0.483871
                      0.483878
                      0.483885
                      0.483893
                      0.483902
                      0.483911
                      0.483921
                      0.483931
                      0.483941
                      0.483951
                      0.483962
                      0.483972
                      0.483983
                      0.483993
                      0.484004
                      0.484015
                      0.484026
                      0.484036
                      0.484047
                      0.484058
                      0.484068
                      0.484079
                      0.484090
                      0.484100
                      0.484111
                      0.484122
                      0.484132
                      0.484143
                      0.484154
                      0.484165
                      0.484175
                      0.484186
                      0.484197
                      0.484207
                      0.484218
                      0.484229
                      0.484239
                      0.484250
                      0.484261
                      0.484271
                      0.484282
                      0.484293
                      0.484303
                      0.484314
                      0.484325
                      0.484335
                      0.484346
                      0.484357
                      0.484367
                      0.484378
                      0.484389
                      0.484399
                      0.484410
                      0.484421
                      0.484431
                      0.484442
                      0.484453
                      0.484463
                      0.484474
                      0.484484
                      0.484495
                      0.484506
                      0.484516
                      0.484527
                      0.484537
                      0.484548
                      0.484558
                      0.484569
                      0.484579
        </DataArray>
        <DataArray type="Float32" Name="T_l" format="ascii">
                    450.000001
                    450.000003
                    450.000004
                    450.000005
                    450.000006
                    450.000006
                    450.000007
                    450.000007
                    450.000007
                    450.000007
                    450.000007
                    450.000006
                    450.000004
                    450.000002
                    450.000000
                    449.999998
                    449.999995
                    449.999992
                    449.999990
                    449.999987
                    449.999985
                    449.999982
                    449.999981
                    449.999979
                    449.999977
                    449.999976
                    449.999975
                    449.999975
                    449.999974
                    449.999974
                    449.999974
                    449.999974
                    449.999974
                    449.999974
                    449.999974
                    449.999974
                    449.999975
                    449.999975
                    449.999975
                    449.999976
                    449.999976
                    449.999976
                    449.999977
                    449.999977
                    449.999978
                    449.999978
                    449.999978
                    449.999979
                    449.999979
                    449.999980
                    449.999980
                    449.999980
                    449.999981
                    449.999981
                    449.999982
                    449.999982
                    449.999982
                    449.999983
                    449.999983
                    449.999984
                    449.999984
                    449.999984
                    449.999985
                    449.999985
                    449.999986
                    449.999986
                    449.999986
                    449.999987
                    449.999987
                    449.999988
                    449.999988
                    449.999988
                    449.999989
                    449.999989
                    449.999990
                    449.999990
                    449.999990
                    449.999991
                    449.999991
                    449.999992
                    449.999992
                    449.999992
                    449.999993
                    449.999993
                    449.999994
                    449.999994
                    449.999994
                    449.999995
                    449.999995
                    449.999996
                    449.999996
                    449.999996
                    449.999997
                    449.999997
                    449.999998
                    449.999998
                    449.999998
                    449.999999
                    449.999999
                    450.000000
        </DataArray>
        <DataArray type="Float32" Name="T_g" format="ascii">
                    449.839609
                    449.839538
                    449.839652
                    449.839909
                    449.840272
                    449.840704
                    449.841168
                    449.841623
                    449.842027
                    449.842330
                    449.842485
                    449.842441
                    449.842149
                    449.841567
                    449.840660
                    449.839406
                    449.837802
                    449.835866
                    449.833638
                    449.831188
                    449.828606
                    449.826003
                    449.823498
                    449.821208
                    449.819239
                    449.817677
                    449.816578
                    449.815970
                    449.815854
                    449.816207
                    449.816989
                    449.818152
                    449.819641
                    449.821404
                    449.823390
                    449.825555
                    449.827860
                    449.830274
                    449.832770
                    449.835328
                    449.837931
                    449.840568
                    449.843229
                    449.845907
                    449.848596
                    449.851294
                    449.853997
                    449.856704
                    449.859414
                    449.862124
                    449.864835
                    449.867547
                    449.870259
                    449.872970
                    449.875681
                    449.878391
                    449.881101
                    449.883811
                    449.886520
                    449.889228
                    449.891936
                    449.894643
                    449.897350
                    449.900057
                    449.902762
                    449.905468
                    449.908173
                    449.910877
                    449.913581
                    449.916285
                    449.918988
                    449.921691
                    449.924393
                    449.927095
                    449.929797
                    449.932498
                    449.935199
                    449.937899
                    449.940600
                    449.943300
                    449.946000
                    449.948699
                    449.951399
                    449.954098
                    449.956798
                    449.959498
                    449.962199
                    449.964901
                    449.967607
                    449.970318
                    449.973036
                    449.975765
                    449.978509
                    449.981274
                    449.984064
                    449.986885
                    449.989741
                    449.992631
                    449.995557
                    449.998514
        </DataArray>
      </CellData>
      <PointData>
        <DataArray type="Int32" Name="node_id" format="ascii">
          0
          1
          2
          3
          4
          5
          6
          7
          8
          9
          10
          11
          12
          13
          14
          15
          16
          17
          18
          19
          20
          21
          22
          23
          24
          25
          26
          27
          28
          29
          30
          31
          32
          33
          34
          35
          36
          37
          38
          39
          40
          41
          42
          43
          44
          45
          46
          47
          48
          49
          50
          51
          52
          53
          54
          55
          56
          57
          58
          59
          60
          61
          62
          63
          64
          65
          66
          67
          68
          69
          70
          71
          72
          73
          74
          75
          76
          77
          78
          79
          80
          81
          82
          83
          84
          85
          86
          87
          88
          89
          90
          91
          92
          93
          94
          95
          96
          97
          98
          99
          100
        </DataArray>
        <DataArray type="Float32" Name="v_l" format="ascii">
                     10.000000
                     10.116303
                     10.231294
                     10.345003
                     10.457427
                     10.568512
                     10.678123
                     10.786014
                     10.891812
                     10.995019
                     11.095022
                     11.191132
                     11.282631
                     11.368822
                     11.449081
                     11.522904
                     11.589939
                     11.650002
                     11.703088
                     11.749361
                     11.789130
                     11.822831
                     11.850986
                     11.874179
                     11.893018
                     11.908110
                     11.920036
                     11.929335
                     11.936491
                     11.941930
                     11.946011
                     11.949039
                     11.951258
                     11.952867
                     11.954020
                     11.954839
                     11.955414
                     11.955814
                     11.956089
                     11.956277
                     11.956404
                     11.956489
                     11.956546
                     11.956583
                     11.956607
                     11.956623
                     11.956633
                     11.956639
                     11.956643
                     11.956646
                     11.956647
                     11.956648
                     11.956649
                     11.956649
                     11.956649
                     11.956650
                     11.956650
                     11.956650
                     11.956650
                     11.956650
                     11.956650
                     11.956650
                     11.956650
                     11.956650
                     11.956650
                     11.956650
                     11.956650
                     11.956650
                     11.956650
                     11.956650
                     11.956650
                     11.956650
                     11.956650
                     11.956650
                     11.956651
                     11.956651